
                                 *****************
                                 * O   R   C   A *
                                 *****************

                                            #,                                       
                                            ###                                      
                                            ####                                     
                                            #####                                    
                                            ######                                   
                                           ########,                                 
                                     ,,################,,,,,                         
                               ,,#################################,,                 
                          ,,##########################################,,             
                       ,#########################################, ''#####,          
                    ,#############################################,,   '####,        
                  ,##################################################,,,,####,       
                ,###########''''           ''''###############################       
              ,#####''   ,,,,##########,,,,          '''####'''          '####       
            ,##' ,,,,###########################,,,                        '##       
           ' ,,###''''                  '''############,,,                           
         ,,##''                                '''############,,,,        ,,,,,,###''
      ,#''                                            '''#######################'''  
     '                                                          ''''####''''         
             ,#######,   #######,   ,#######,      ##                                
            ,#'     '#,  ##    ##  ,#'     '#,    #''#        ,####,   ,####,        
            ##       ##  ##   ,#'  ##            #'  '#       #'       #'  '#        
            ##       ##  #######   ##           ,######,      #####,   #    #        
            '#,     ,#'  ##    ##  '#,     ,#' ,#      #,     #,   #   #,  ,#        
             '#######'   ##     ##  '#######'  #'      '#     '####' # '####'        



                #########################################################
                #                        -***-                          #
                #          Department of theory and spectroscopy        #
                #                                                       #
                #                      Frank Neese                      #
                #                                                       #
                #     Directorship, Architecture, Infrastructure        #
                #                    SHARK, DRIVERS                     #
                #        Core code/Algorithms in most modules           #
                #                                                       #
                #        Max Planck Institute fuer Kohlenforschung      #
                #                Kaiser Wilhelm Platz 1                 #
                #                 D-45470 Muelheim/Ruhr                 #
                #                      Germany                          #
                #                                                       #
                #                  All rights reserved                  #
                #                        -***-                          #
                #########################################################


                         Program Version 6.0.0-f.0  -   RELEASE   -


 With contributions from (in alphabetic order):
   Daniel Aravena         : Magnetic Suceptibility
   Michael Atanasov       : Ab Initio Ligand Field Theory (pilot matlab implementation)
   Alexander A. Auer      : GIAO ZORA, VPT2 properties, NMR spectrum
   Ute Becker             : All parallelization in ORCA, NUMFREQ, NUMCALC
   Giovanni Bistoni       : ED, misc. LED, open-shell LED, HFLD
   Martin Brehm           : Molecular dynamics
   Dmytro Bykov           : pre 5.0 version of the SCF Hessian
   Marcos Casanova-Páez   : Triplet and SCS-CIS(D). UHF-(DLPNO)-IP/EA/STEOM-CCSD. UHF-CVS-IP/STEOM-CCSD
   Pauline Colinet        : FMM embedding
   Vijay G. Chilkuri      : MRCI spin determinant printing, contributions to CSF-ICE
   Dipayan Datta          : RHF DLPNO-CCSD density
   Achintya Kumar Dutta   : EOM-CC, STEOM-CC
   Nicolas Foglia         : Exact transition moments, OPA infrastructure, MCD improvements
   Dmitry Ganyushin       : Spin-Orbit,Spin-Spin,Magnetic field MRCI
   Miquel Garcia          : C-PCM and meta-GGA Hessian, CCSD/C-PCM, Gaussian charge scheme
   Tiago L. C. Gouveia    : GS-ROHF, GS-ROCIS
   Yang Guo               : DLPNO-NEVPT2, F12-NEVPT2, CIM, IAO-localization
   Andreas Hansen         : Spin unrestricted coupled pair/coupled cluster methods
   Ingolf Harden          : AutoCI MPn and infrastructure 
   Benjamin Helmich-Paris : MC-RPA, TRAH-(SCF,CASSCF), AVAS, COSX integrals, SCF dyn. polar.
   Lee Huntington         : MR-EOM, pCC
   Robert Izsak           : Overlap fitted RIJCOSX, COSX-SCS-MP3, EOM
   Christian Kollmar      : KDIIS, OOCD, Brueckner-CCSD(T), CCSD density, CASPT2, CASPT2-K, improved NEVPT2
   Axel Koslowski         : Symmetry handling, petite lists
   Simone Kossmann        : Meta GGA functionals, TD-DFT gradient, OOMP2, (MP2 Hessian; deprecated post 5.0)
   Lucas Lang             : DCDCAS
   Marvin Lechner         : AUTO-CI (C++ implementation), FIC-MRCC
   Dagmar Lenk            : GEPOL surface, SMD, ORCA-2-JSON
   Dimitrios Liakos       : Extrapolation schemes; Compound Job, initial MDCI parallelization
   Dimitrios Manganas     : Further ROCIS development; embedding schemes. LFT, Crystal Embedding
   Dimitrios Pantazis     : SARC Basis sets
   Anastasios Papadopoulos: AUTO-CI, single reference methods and gradients
   Taras Petrenko         : pre 6.0 DFT Hessian and TD-DFT gradient, (ASA, deprecated), ECA, 1-Electron XAS/XES, NRVS
   Peter Pinski           : DLPNO-MP2, DLPNO-MP2 Gradient
   Christoph Reimann      : Effective Core Potentials
   Marius Retegan         : Local ZFS, SOC
   Christoph Riplinger    : Optimizer, TS searches, QM/MM, DLPNO-CCSD(T), (RO)-DLPNO pert. Triples
   Michael Roemelt        : Original ROCIS implementation
   Masaaki Saitow         : Open-shell DLPNO-CCSD energy and density
   Barbara Sandhoefer     : DKH picture change effects
   Kantharuban Sivalingam : CASSCF convergence/infrastructure, NEVPT2 and variants, FIC-MRCI
   Bernardo de Souza      : ESD, SOC TD-DFT
   Georgi Stoychev        : AutoAux, RI-MP2 NMR, DLPNO-MP2 response, X2C
   Van Anh Tran           : RI-MP2 g-tensors
   Zikuan Wang            : NOTCH, Electric field optimization 
   Willem Van den Heuvel  : Paramagnetic NMR
   Frank Wennmohs         : Technical directorship and infrastructure
   Hang Xu                : AutoCI-Response properties 


 We gratefully acknowledge several colleagues who have allowed us to
 interface, adapt or use parts of their codes:
   Stefan Grimme, W. Hujo, H. Kruse, P. Pracht,  : VdW corrections, initial TS optimization,
                  C. Bannwarth, S. Ehlert,         DFT functionals, gCP, sTDA/sTD-DF
                  L. Wittmann, M. Mueller
   Ed Valeev, F. Pavosevic, A. Kumar             : LibInt (2-el integral package), F12 methods
   Garnet Chan, S. Sharma, J. Yang, R. Olivares  : DMRG
   Ulf Ekstrom                                   : XCFun DFT Library
   Mihaly Kallay                                 : mrcc  (arbitrary order and MRCC methods)
   Frank Weinhold                                : gennbo (NPA and NBO analysis)
   Simon Mueller                                 : openCOSMO-RS
   Christopher J. Cramer and Donald G. Truhlar   : smd solvation model
   Lars Goerigk                                  : TD-DFT with DH, B97 family of functionals
   V. Asgeirsson, H. Jonsson                     : NEB implementation
   FAccTs GmbH                                   : IRC, NEB, NEB-TS, DLPNO-Multilevel, CI-OPT
                                                   MM, QMMM, 2- and 3-layer-ONIOM, Crystal-QMMM,
                                                   LR-CPCM, SF, NACMEs, symmetry and pop. for TD-DFT,
                                                   nearIR, NL-DFT gradient (VV10), updates on ESD,
                                                   ML-optimized integration grids
                                                   GOAT, DOCKER, SOLVATOR
   S Lehtola, MJT Oliveira, MAL Marques          : LibXC Library
   Liviu Ungur et al                             : ANISO software


 Your calculation uses the libint2 library for the computation of 2-el integrals
 For citations please refer to: http://libint.valeyev.net

 Your ORCA version has been built with support for libXC version: 6.2.2
 For citations please refer to: https://libxc.gitlab.io

 This ORCA versions uses:
   CBLAS   interface :  Fast vector & matrix operations
   LAPACKE interface :  Fast linear algebra routines
   SCALAPACK package :  Parallel linear algebra routines
   Shared memory     :  Shared parallel matrices
   BLAS/LAPACK       :  OpenBLAS 0.3.27  USE64BITINT DYNAMIC_ARCH NO_AFFINITY Cooperlake SINGLE_THREADED
        Core in use  :  Cooperlake
   Copyright (c) 2011-2014, The OpenBLAS Project


Reading of a custom orbital basis requested
Basis file: def2-tzvpd.bas
Basis read successfully!

NOTE: MaxCore=1712 MB was set to SCF,MP2,MDCI,CIPSI,MRCI and CIS
      => If you want to overwrite this, your respective input block should be placed after the MaxCore statement
Your calculation utilizes the DFT-NL dispersion correction.
Cite in your paper:
Vydrov, O. A.; Van Voorhis, T. J. Chem. Phys. 2010, 133, 244103
Hujo, W.; Grimme, S. J. Chem. Theory Comput. 2011, 7, 3866 
   

================================================================================

----- Orbital basis set information -----
Basis read from file: def2-tzvpd.bas

----- AuxJ basis set information -----
Your calculation utilizes the auxiliary basis: def2/J
   F. Weigend, Phys. Chem. Chem. Phys. 8, 1057 (2006).

================================================================================
                                        WARNINGS
                       Please study these warnings very carefully!
================================================================================

Using LibXC functional ID 531 : wB97M-V exchange-correlation functional
[ 1]  N. Mardirossian and M. Head-Gordon.,  J. Chem. Phys. 144, 214110 (2016)
Using LibXC functional ID 531 : wB97M-V exchange-correlation functional
[ 1]  N. Mardirossian and M. Head-Gordon.,  J. Chem. Phys. 144, 214110 (2016)

WARNING: B97M-V or wB97M-V functional requested.
  ===> : libXC variant has now been activated.
         Any manually given DFX/HFX/RangeSep scaling parameters are IGNORED!

Your calculation utilizes LibXC
 by S Lehtola, C Steigemann, MJT Oliveira & MAL Marques
Please cite in your paper:
 S Lehtola, C Steigemann, MJT Oliveira & MAL Marques, SoftwareX, 7, (2018), 1.
   


WARNING: Analytic gradients for DFT-NL dispersion can only be done using the self-consistent method,
  ===>   Switching to SCNL

WARNING: Self-consistent DFT-NL dispersion not compatible with AutoTRAH.
  ===>   Switching AutoTRAH off


================================================================================
                                       INPUT FILE
================================================================================
NAME = /tmp/tmpt7tg2hh5/orca.inp
|  1> ! wB97M-V def2-TZVPD EnGrad RIJCOSX def2/J NoUseSym DIIS NOSOSCF NormalConv DEFGRID3 ALLPOP 
|  2> %scf Convergence Tight maxiter 300 end %elprop Dipole true Quadrupole true end %output Print[P_ReducedOrbPopMO_L] 1 Print[P_ReducedOrbPopMO_M] 1 Print[P_BondOrder_L] 1 Print[P_BondOrder_M] 1 Print[P_Fockian] 1 Print[P_OrbEn] 2 end %basis GTOName "def2-tzvpd.bas" end %scf THRESH 1e-12 TCUT 1e-13 end %maxcore 1712.0 %nbo NBOKEYLIST = "$NBO NPA NBO E2PERT 0.1 $END" end 
|  3> *xyz 2 1 
|  4> Li   0.0 0.0 0.0
|  5> Li   0.0 0.0 5.199997901916504
|  6> *
|  7> %pal nprocs 24 endd                         ****END OF INPUT****
================================================================================

                     *******************************
                     * Energy+Gradient Calculation *
                     *******************************

---------------------------------
CARTESIAN COORDINATES (ANGSTROEM)
---------------------------------
  Li     0.000000    0.000000    0.000000
  Li     0.000000    0.000000    5.199998

----------------------------
CARTESIAN COORDINATES (A.U.)
----------------------------
  NO LB      ZA    FRAG     MASS         X           Y           Z
   0 Li    3.0000    0     6.941    0.000000    0.000000    0.000000
   1 Li    3.0000    0     6.941    0.000000    0.000000    9.826572

--------------------------------
INTERNAL COORDINATES (ANGSTROEM)
--------------------------------
 Li     0   0   0     0.000000000000     0.00000000     0.00000000
 Li     1   0   0     5.199997901917     0.00000000     0.00000000

---------------------------
INTERNAL COORDINATES (A.U.)
---------------------------
 Li     0   0   0     0.000000000000     0.00000000     0.00000000
 Li     1   0   0     9.826571931587     0.00000000     0.00000000

---------------------
BASIS SET INFORMATION
---------------------
There are 1 groups of distinct atoms

 Group   1 Type Li  : 11s4p contracted to 5s4p pattern {62111/1111}

Atom   0Li   basis set group =>   1
Atom   1Li   basis set group =>   1
---------------------------------
AUXILIARY/J BASIS SET INFORMATION
---------------------------------
There are 1 groups of distinct atoms

 Group   1 Type Li  : 12s5p4d2f1g contracted to 6s4p3d1f1g pattern {711111/2111/211/2/1}

Atom   0Li   basis set group =>   1
Atom   1Li   basis set group =>   1


           ************************************************************
           *        Program running with 24 parallel MPI-processes    *
           *              working on a common directory               *
           ************************************************************
------------------------------------------------------------------------------
                             ORCA STARTUP CALCULATIONS
                           -- RI-GTO INTEGRALS CHOSEN --
------------------------------------------------------------------------------
------------------------------------------------------------------------------
                   ___                                                        
                  /   \      - P O W E R E D   B Y -                         
                 /     \                                                     
                 |  |  |   _    _      __       _____    __    __             
                 |  |  |  | |  | |    /  \     |  _  \  |  |  /  |          
                  \  \/   | |  | |   /    \    | | | |  |  | /  /          
                 / \  \   | |__| |  /  /\  \   | |_| |  |  |/  /          
                |  |  |   |  __  | /  /__\  \  |    /   |      \           
                |  |  |   | |  | | |   __   |  |    \   |  |\   \          
                \     /   | |  | | |  |  |  |  | |\  \  |  | \   \       
                 \___/    |_|  |_| |__|  |__|  |_| \__\ |__|  \__/        
                                                                              
                      - O R C A' S   B I G   F R I E N D -                    
                                      &                                       
                       - I N T E G R A L  F E E D E R -                       
                                                                              
 v1 FN, 2020, v2 2021, v3 2022-2024                                           
------------------------------------------------------------------------------


----------------------
SHARK INTEGRAL PACKAGE
----------------------

Number of atoms                             ...      2
Number of basis functions                   ...     34
Number of shells                            ...     18
Maximum angular momentum                    ...      1
Integral batch strategy                     ... SHARK/LIBINT Hybrid
RI-J (if used) integral strategy            ... SPLIT-RIJ (Revised 2003 algorithm where possible)
Printlevel                                  ...      1
Contraction scheme used                     ... SEGMENTED contraction
Prescreening option                         ... SCHWARTZ
   Thresh                                   ... 1.000e-12
   Tcut                                     ... 1.000e-13
   Tpresel                                  ... 1.000e-13 
Coulomb Range Separation                    ... NOT USED
Exchange Range Separation                   ... Long Range
   Mu parameter                             ... 3.000e-01
   Scaling (regular/separated)              ... 1.500e-01 8.500e-01
Multipole approximations                    ... NOT USED
Finite Nucleus Model                        ... NOT USED
CABS basis                                  ... NOT available
Auxiliary Coulomb fitting basis             ... AVAILABLE
   # of basis functions in Aux-J            ...     98
   # of shells in Aux-J                     ...     30
   Maximum angular momentum in Aux-J        ...      4
Auxiliary J/K fitting basis                 ... NOT available
Auxiliary Correlation fitting basis         ... NOT available
Auxiliary 'external' fitting basis          ... NOT available

Checking pre-screening integrals            ... done (  0.0 sec) Dimension = 18
Check shell pair data                       ... done (  0.0 sec)
Shell pair information
Shell pair cut-off parameter TPreSel        ...   1.0e-13
Total number of shell pairs                 ...       171
Shell pairs after pre-screening             ...       152
Total number of primitive shell pairs       ...       497
Primitive shell pairs kept                  ...       382
          la=0 lb=0:     47 shell pairs
          la=1 lb=0:     72 shell pairs
          la=1 lb=1:     33 shell pairs

Calculating one electron integrals          ... done (  0.0 sec)
Calculating RI/J V-Matrix + Cholesky decomp.... done (  0.0 sec)
Calculating Nuclear repulsion               ... done (  0.0 sec) ENN=      0.915883999289 Eh

Diagonalization of the overlap matrix:
Smallest eigenvalue                        ... 3.624e-02
Time for diagonalization                   ...    0.004 sec
Threshold for overlap eigenvalues          ... 1.000e-07
Number of eigenvalues below threshold      ... 0
Time for construction of square roots      ...    0.000 sec
Total time needed                          ...    0.006 sec

-------------------
DFT GRID GENERATION
-------------------

General Integration Accuracy     IntAcc      ... 4.959
Radial Grid Type                 RadialGrid  ... OptM3 with GC (2021)
Angular Grid (max. ang.)         AngularGrid ... 6 (Lebedev-590)
Angular grid pruning method      GridPruning ... 4 (adaptive)
Weight generation scheme         WeightScheme... mBecke (2022)
Basis function cutoff            BFCut       ... 1.0000e-11
Integration weight cutoff        WCut        ... 1.0000e-14
Partially contracted basis set               ... off
Rotationally invariant grid construction     ... off
Angular grids for H and He will be reduced by one unit

Total number of grid points                  ...    29128
Total number of batches                      ...      456
Average number of points per batch           ...       63
Average number of grid points per atom       ...    14564

------------------
NL GRID GENERATION
------------------

General Integration Accuracy     IntAcc      ... 4.159
Radial Grid Type                 RadialGrid  ... OptM3 with GC (2021)
Angular Grid (max. ang.)         AngularGrid ... 3 (Lebedev-194)
Angular grid pruning method      GridPruning ... 4 (adaptive)
Weight generation scheme         WeightScheme... mBecke (2022)
Basis function cutoff            BFCut       ... 1.0000e-10
Integration weight cutoff        WCut        ... 1.0000e-14
Partially contracted basis set               ... off
Rotationally invariant grid construction     ... off
Angular grids for H and He will be reduced by one unit

Total number of grid points                  ...     6694
Total number of batches                      ...      106
Average number of points per batch           ...       63
Average number of grid points per atom       ...     3347

--------------------
COSX GRID GENERATION
--------------------

GRIDX 1
-------
General Integration Accuracy     IntAcc      ... 4.020
Radial Grid Type                 RadialGrid  ... OptM3 with GC (2021)
Angular Grid (max. ang.)         AngularGrid ... 2 (Lebedev-110)
Angular grid pruning method      GridPruning ... 4 (adaptive)
Weight generation scheme         WeightScheme... mBecke (2022)
Basis function cutoff            BFCut       ... 1.0000e-11
Integration weight cutoff        WCut        ... 1.0000e-14
Partially contracted basis set               ... on
Rotationally invariant grid construction     ... off
Angular grids for H and He will be reduced by one unit

Total number of grid points                  ...     3766
Total number of batches                      ...       30
Average number of points per batch           ...      125
Average number of grid points per atom       ...     1883
UseSFitting                                  ... on

GRIDX 2
-------
General Integration Accuracy     IntAcc      ... 4.338
Radial Grid Type                 RadialGrid  ... OptM3 with GC (2021)
Angular Grid (max. ang.)         AngularGrid ... 3 (Lebedev-194)
Angular grid pruning method      GridPruning ... 4 (adaptive)
Weight generation scheme         WeightScheme... mBecke (2022)
Basis function cutoff            BFCut       ... 1.0000e-11
Integration weight cutoff        WCut        ... 1.0000e-14
Partially contracted basis set               ... on
Rotationally invariant grid construction     ... off
Angular grids for H and He will be reduced by one unit

Total number of grid points                  ...     8428
Total number of batches                      ...       66
Average number of points per batch           ...      127
Average number of grid points per atom       ...     4214
UseSFitting                                  ... on

GRIDX 3
-------
General Integration Accuracy     IntAcc      ... 4.871
Radial Grid Type                 RadialGrid  ... OptM3 with GC (2021)
Angular Grid (max. ang.)         AngularGrid ... 4 (Lebedev-302)
Angular grid pruning method      GridPruning ... 4 (adaptive)
Weight generation scheme         WeightScheme... mBecke (2022)
Basis function cutoff            BFCut       ... 1.0000e-11
Integration weight cutoff        WCut        ... 1.0000e-14
Partially contracted basis set               ... on
Rotationally invariant grid construction     ... off
Angular grids for H and He will be reduced by one unit

Total number of grid points                  ...    14958
Total number of batches                      ...      118
Average number of points per batch           ...      126
Average number of grid points per atom       ...     7479
UseSFitting                                  ... on
Initializing property integral containers    ... done (  0.0 sec)

SHARK setup successfully completed in   1.2 seconds

Maximum memory used throughout the entire STARTUP-calculation: 10.7 MB


           ************************************************************
           *        Program running with 24 parallel MPI-processes    *
           *              working on a common directory               *
           ************************************************************
-------------------------------------------------------------------------------
                                 ORCA GUESS
                   Start orbitals & Density for SCF / CASSCF
-------------------------------------------------------------------------------

------------
SCF SETTINGS
------------
Hamiltonian:
 Density Functional     Method          .... DFT(GTOs)
  Functional kind                       .... Exchange-Correlation
  Functional name                       .... wB97M-V exchange-correlation functional
  Functional family                     .... Hybrid MGGA
  Functional refs                              
    [ 0] N. Mardirossian and M. Head-Gordon.,  J. Chem. Phys. 144, 214110 (2016), doi: 10.1063/1.4952647
  Fraction of HF Exchange (short range) .... 0.1500
  Fraction of HF Exchange (long range)  .... 1.0000
  Range separation parameter mu         .... 0.3000
  Functional external parameters        .... 17
    Parameter  0 _cx00      =  8.500000e-01 : u^00 coefficient for exchange
    Parameter  1 _cx01      =  1.007000e+00 : u^01 coefficient for exchange
    Parameter  2 _cx10      =  2.590000e-01 : u^10 coefficient for exchange
    Parameter  3 _css00     =  4.430000e-01 : u^00 coefficient for same-spin correlation
    Parameter  4 _css04     = -1.437000e+00 : u^04 coefficient for same-spin correlation
    Parameter  5 _css10     = -4.535000e+00 : u^10 coefficient for same-spin correlation
    Parameter  6 _css20     = -3.390000e+00 : u^20 coefficient for same-spin correlation
    Parameter  7 _css43     =  4.278000e+00 : u^43 coefficient for same-spin correlation
    Parameter  8 _cos00     =  1.000000e+00 : u^00 coefficient for opposite-spin correlation
    Parameter  9 _cos10     =  1.358000e+00 : u^10 coefficient for opposite-spin correlation
    Parameter 10 _cos20     =  2.924000e+00 : u^20 coefficient for opposite-spin correlation
    Parameter 11 _cos21     = -8.812000e+00 : u^21 coefficient for opposite-spin correlation
    Parameter 12 _cos60     = -1.390000e+00 : u^60 coefficient for opposite-spin correlation
    Parameter 13 _cos61     =  9.142000e+00 : u^61 coefficient for opposite-spin correlation
    Parameter 14 _alpha     =  1.000000e+00 : fraction of HF exchange
    Parameter 15 _beta      = -8.500000e-01 : fraction of short-range exchange
    Parameter 16 _omega     =  3.000000e-01 : range-separation constant
 Long-range corrected/Screened/Range-Separated Hybrid DFT is turned on
   Amount of maximum screened exact exchange              ....  0.850000
   Range separation parameter mu (erf(mu*r12)/r12)        ....  0.300000
   NL short-range parameter             ....  6.000000
   NL long-range parameter              ....  0.010000
 RI-approximation to the Coulomb term is turned on
   Number of AuxJ basis functions       .... 98
   RIJ-COSX (HFX calculated with COS-X)).... on


General Settings:
 Integral files         IntName         .... /tmp/tmpt7tg2hh5/orca
 Hartree-Fock type      HFTyp           .... RHF
 Total Charge           Charge          ....    2
 Multiplicity           Mult            ....    1
 Number of Electrons    NEL             ....    4
 Basis Dimension        Dim             ....   34
 Nuclear Repulsion      ENuc            ....      0.9158839993 Eh

Convergence Acceleration:
 AO-DIIS                CNVDIIS         .... on
   Start iteration      DIISMaxIt       ....    12
   Startup error        DIISStart       ....  0.200000
   # of expansion vecs  DIISMaxEq       ....     5
   Bias factor          DIISBfac        ....   1.050
   Max. coefficient     DIISMaxC        ....  10.000
 MO-DIIS                CNVKDIIS        .... off
 Trust-Rad. Augm. Hess. CNVTRAH         .... off
 SOSCF                  CNVSOSCF        .... off
 Level Shifting         CNVShift        .... on
   Level shift para.    LevelShift      ....    0.2500
   Turn off err/grad.   ShiftErr        ....    0.0010
 Zerner damping         CNVZerner       .... off
 Static damping         CNVDamp         .... on
   Fraction old density DampFac         ....    0.7000
   Max. Damping (<1)    DampMax         ....    0.9800
   Min. Damping (>=0)   DampMin         ....    0.0000
   Turn off err/grad.   DampErr         ....    0.1000

SCF Procedure:
 Maximum # iterations   MaxIter         ....   300
 SCF integral mode      SCFMode         .... Direct
   Integral package                     .... SHARK and LIBINT hybrid scheme
 Reset frequency        DirectResetFreq ....    20
 Integral Threshold     Thresh          ....  1.000e-12 Eh
 Primitive CutOff       TCut            ....  1.000e-13 Eh

Convergence Tolerance:
 Convergence Check Mode ConvCheckMode   .... Total+1el-Energy
 Convergence forced     ConvForced      .... 0
 Energy Change          TolE            ....  1.000e-08 Eh
 1-El. energy change                    ....  1.000e-05 Eh
 DIIS Error             TolErr          ....  5.000e-07

------------------------------
INITIAL GUESS: MODEL POTENTIAL
------------------------------
Loading Hartree-Fock densities                     ... done
Calculating cut-offs                               ... done
Initializing the effective Hamiltonian             ... done
Setting up the integral package (SHARK)            ... done
Starting the Coulomb interaction                   ... done (   0.0 sec)
Making the grid                                    ... done (   0.0 sec)
Mapping shells                                     ... done
Starting the XC term evaluation                    ... done (   0.0 sec)
  promolecular density results
     # of electrons  =      5.999980839
     EX              =     -3.481945837
     EC              =     -0.116536308
     EX+EC           =     -3.598482145
Transforming the Hamiltonian                       ... done (   0.0 sec)
Diagonalizing the Hamiltonian                      ... done (   0.0 sec)
Back transforming the eigenvectors                 ... done (   0.0 sec)
Now organizing SCF variables                       ... done
                      ------------------
                      INITIAL GUESS DONE (   0.0 sec)
                      ------------------
             **** ENERGY FILE WAS UPDATED (/tmp/tmpt7tg2hh5/orca.en.tmp) ****
Finished Guess after   0.2 sec
Maximum memory used throughout the entire GUESS-calculation: 4.6 MB


           ************************************************************
           *        Program running with 24 parallel MPI-processes    *
           *              working on a common directory               *
           ************************************************************

-------------------------------------------------------------------------------------------
                                      ORCA LEAN-SCF
                              memory conserving SCF solver
-------------------------------------------------------------------------------------------

----------------------------------------D-I-I-S--------------------------------------------
Iteration    Energy (Eh)           Delta-E    RMSDP     MaxDP     DIISErr   Damp  Time(sec)
-------------------------------------------------------------------------------------------
               ***  Starting incremental Fock matrix formation  ***
    1    -14.4482318548743347     0.00e+00  6.53e-04  9.18e-03  5.27e-02  0.700   0.2
    2    -14.4487536596908885    -5.22e-04  5.01e-04  7.07e-03  3.61e-02  0.700   0.2
                               ***Turning on AO-DIIS***
    3    -14.4491179251196105    -3.64e-04  3.54e-04  5.07e-03  2.37e-02  0.700   0.1
    4    -14.4493712135796688    -2.53e-04  8.28e-04  1.19e-02  1.64e-02  0.000   0.2
    5    -14.4499603137878019    -5.89e-04  7.16e-06  7.86e-05  3.58e-04  0.000   0.2
               *** Restarting incremental Fock matrix formation ***
                             ****Resetting DIIS****
    6    -14.4499603584191441    -4.46e-08  1.27e-06  1.64e-05  3.70e-05  0.000   0.2
    7    -14.4499603592681289    -8.49e-10  1.47e-07  1.95e-06  3.51e-06  0.000   0.2
                 **** Energy Check signals convergence ****

               *****************************************************
               *                     SUCCESS                       *
               *           SCF CONVERGED AFTER   7 CYCLES          *
               *****************************************************

Recomputing exchange energy using gridx3       ... done (    0.043 sec)
Old exchange energy                            :     -1.055134580 Eh
New exchange energy                            :     -1.055134587 Eh
Exchange energy change after final integration :     -0.000000007 Eh
Total energy after final integration           :    -14.449960367 Eh
             **** ENERGY FILE WAS UPDATED (/tmp/tmpt7tg2hh5/orca.en.tmp) ****

----------------
TOTAL SCF ENERGY
----------------

Total Energy       :        -14.44996036670492 Eh            -393.20341 eV

Components:
Nuclear Repulsion  :          0.91588399928867 Eh              24.92247 eV
Electronic Energy  :        -15.38466173487836 Eh            -418.63793 eV
One Electron Energy:        -18.98946320441776 Eh            -516.72956 eV
Two Electron Energy:          3.60480146953940 Eh              98.09163 eV

Virial components:
Potential Energy   :        -28.96751676612552 Eh            -788.24620 eV
Kinetic Energy     :         14.51755639942061 Eh             395.04279 eV
Virial Ratio       :          1.99534384225169

DFT components:
N(Alpha)           :        1.999999974538 electrons
N(Beta)            :        1.999999974538 electrons
N(Total)           :        3.999999949076 electrons
NL Energy, E(C,NL) :        0.018817376322 Eh       
E(XC)              :       -2.321585022666 Eh       

---------------
SCF CONVERGENCE
---------------

  Last Energy change         ...    8.4898e-10  Tolerance :   1.0000e-08
  Last MAX-Density change    ...    1.9471e-06  Tolerance :   1.0000e-07
  Last RMS-Density change    ...    1.4700e-07  Tolerance :   5.0000e-09
  Last DIIS Error            ...    3.5076e-06  Tolerance :   5.0000e-07


----------------
ORBITAL ENERGIES
----------------

  NO   OCC          E(Eh)            E(eV) 
   0   2.0000      -2.572982       -70.0144 
   1   2.0000      -2.572978       -70.0143 
   2   0.0000      -0.341255        -9.2860 
   3   0.0000      -0.313025        -8.5178 
   4   0.0000      -0.252639        -6.8747 
   5   0.0000      -0.246043        -6.6952 
   6   0.0000      -0.246043        -6.6952 
   7   0.0000      -0.231791        -6.3073 
   8   0.0000      -0.231791        -6.3073 
   9   0.0000      -0.218089        -5.9345 
  10   0.0000      -0.142350        -3.8735 
  11   0.0000      -0.134034        -3.6472 
  12   0.0000      -0.134033        -3.6472 
  13   0.0000      -0.120581        -3.2812 
  14   0.0000      -0.113265        -3.0821 
  15   0.0000      -0.113110        -3.0779 
  16   0.0000      -0.113110        -3.0779 
  17   0.0000      -0.084552        -2.3008 
  18   0.0000       0.225581         6.1384 
  19   0.0000       0.244665         6.6577 
  20   0.0000       0.244665         6.6577 
  21   0.0000       0.254335         6.9208 
  22   0.0000       0.254335         6.9208 
  23   0.0000       0.270912         7.3719 
  24   0.0000       1.097891        29.8751 
  25   0.0000       1.123174        30.5631 
  26   0.0000       5.508450       149.8926 
  27   0.0000       5.513793       150.0379 
  28   0.0000       5.513793       150.0379 
  29   0.0000       5.517255       150.1321 
  30   0.0000       5.517255       150.1321 
  31   0.0000       5.524385       150.3261 
  32   0.0000      13.858279       377.1029 
  33   0.0000      13.888517       377.9258 
----
FOCK
----
                  0          1          2          3          4          5    
      0       2.576403  -3.095453  -2.310048  -0.703183  -0.347644  -0.000533
      1      -3.095453  -2.081606  -1.841653  -0.765331  -0.396380  -0.002607
      2      -2.310048  -1.841653  -1.318736  -0.704786  -0.397781  -0.007142
      3      -0.703183  -0.765331  -0.704786  -0.544886  -0.403589  -0.008623
      4      -0.347644  -0.396380  -0.397781  -0.403589  -0.363708  -0.005400
      5      -0.000533  -0.002607  -0.007142  -0.008623  -0.005400   0.079756
      6      -0.000000  -0.000000  -0.000000  -0.000000  -0.000000   0.000000
      7      -0.000000  -0.000000  -0.000000  -0.000000   0.000000   0.000000
      8      -0.000131  -0.000482  -0.002167  -0.018389  -0.026219  -0.160756
      9       0.000000   0.000000   0.000000   0.000000  -0.000000   0.000000
     10       0.000000  -0.000000  -0.000000   0.000000   0.000000  -0.000000
     11      -0.001267  -0.003268  -0.002763  -0.000928  -0.000464  -0.179288
     12       0.000000   0.000000  -0.000000  -0.000000   0.000000   0.000000
     13      -0.000000  -0.000000  -0.000000   0.000000  -0.000000   0.000000
     14      -0.000039  -0.000136  -0.000662  -0.011149  -0.029760  -0.067492
     15      -0.000000   0.000000   0.000000  -0.000000   0.000000   0.000000
     16       0.000000   0.000000   0.000000   0.000000  -0.000000  -0.000000
     17       0.000000  -0.000000   0.000001  -0.000534  -0.022023   0.000002
     18      -0.000000  -0.000001   0.000001  -0.000823  -0.026507   0.000003
     19       0.000001   0.000001   0.000002  -0.001490  -0.029775   0.000002
     20      -0.000534  -0.000823  -0.001490  -0.014342  -0.054621  -0.002687
     21      -0.022023  -0.026507  -0.029775  -0.054621  -0.095308  -0.014899
     22      -0.000002  -0.000003  -0.000002   0.002687   0.014899   0.000001
     23       0.000000   0.000000   0.000000   0.000000   0.000000  -0.000000
     24       0.000000   0.000000   0.000000   0.000000   0.000000  -0.000000
     25       0.009781   0.012958   0.017376   0.050632   0.078742   0.017401
     26       0.000000   0.000000  -0.000000  -0.000000  -0.000000  -0.000000
     27       0.000000   0.000000  -0.000000   0.000000   0.000000  -0.000000
     28       0.000001   0.000001   0.000001   0.000265   0.003460  -0.000000
     29       0.000000   0.000000  -0.000000  -0.000000  -0.000000  -0.000000
     30       0.000000   0.000000  -0.000000   0.000000   0.000000  -0.000000
     31       0.107299   0.125021   0.131228   0.165515   0.178502   0.031403
     32       0.000000  -0.000000  -0.000000  -0.000000   0.000000   0.000000
     33       0.000000   0.000000   0.000000   0.000000  -0.000000  -0.000000
                  6          7          8          9         10         11    
      0      -0.000000  -0.000000  -0.000131   0.000000   0.000000  -0.001267
      1      -0.000000  -0.000000  -0.000482   0.000000  -0.000000  -0.003268
      2      -0.000000  -0.000000  -0.002167   0.000000  -0.000000  -0.002763
      3      -0.000000  -0.000000  -0.018389   0.000000   0.000000  -0.000928
      4      -0.000000   0.000000  -0.026219  -0.000000   0.000000  -0.000464
      5       0.000000   0.000000  -0.160756   0.000000  -0.000000  -0.179288
      6       0.081732   0.000000   0.000000  -0.159470  -0.000000   0.000000
      7       0.000000   0.081732   0.000000  -0.000000  -0.159470   0.000000
      8       0.000000   0.000000  -0.234583  -0.000000  -0.000000  -0.069414
      9      -0.159470  -0.000000  -0.000000  -0.221027  -0.000000   0.000000
     10      -0.000000  -0.159470  -0.000000  -0.000000  -0.221027   0.000000
     11       0.000000   0.000000  -0.069414   0.000000   0.000000   4.827194
     12      -0.179159   0.000000   0.000000  -0.069395   0.000000   0.000000
     13       0.000000  -0.179159   0.000000   0.000000  -0.069395   0.000000
     14      -0.000000   0.000000  -0.181619   0.000000  -0.000000  -0.019897
     15      -0.067040   0.000000  -0.000000  -0.167151  -0.000000  -0.000000
     16       0.000000  -0.067040  -0.000000  -0.000000  -0.167151   0.000000
     17      -0.000000   0.000000  -0.009781   0.000000   0.000000  -0.000001
     18      -0.000000   0.000000  -0.012958   0.000000   0.000000  -0.000001
     19      -0.000000   0.000000  -0.017376   0.000000   0.000000  -0.000001
     20      -0.000000   0.000000  -0.050632  -0.000000   0.000000  -0.000265
     21      -0.000000   0.000000  -0.078742  -0.000000   0.000000  -0.003460
     22       0.000000  -0.000000   0.017401   0.000000  -0.000000  -0.000000
     23       0.000000  -0.000000   0.000000  -0.002128   0.000000  -0.000000
     24      -0.000000   0.000000   0.000000   0.000000  -0.002128   0.000000
     25      -0.000000   0.000000   0.090611   0.000000  -0.000000   0.003072
     26      -0.002128   0.000000  -0.000000  -0.020211   0.000000   0.000000
     27       0.000000  -0.002128   0.000000   0.000000  -0.020211   0.000000
     28      -0.000000  -0.000000   0.003072   0.000000  -0.000000   0.000000
     29       0.000000   0.000000  -0.000000  -0.000309  -0.000000  -0.000000
     30       0.000000   0.000000  -0.000000  -0.000000  -0.000309   0.000000
     31       0.000000   0.000000   0.096562   0.000000  -0.000000   0.008491
     32      -0.011762  -0.000000  -0.000000  -0.046974   0.000000   0.000000
     33      -0.000000  -0.011762   0.000000   0.000000  -0.046974   0.000000
                 12         13         14         15         16         17    
      0       0.000000  -0.000000  -0.000039  -0.000000   0.000000   0.000000
      1       0.000000  -0.000000  -0.000136   0.000000   0.000000  -0.000000
      2      -0.000000  -0.000000  -0.000662   0.000000   0.000000   0.000001
      3      -0.000000   0.000000  -0.011149  -0.000000   0.000000  -0.000534
      4       0.000000  -0.000000  -0.029760   0.000000  -0.000000  -0.022023
      5       0.000000   0.000000  -0.067492   0.000000  -0.000000   0.000002
      6      -0.179159   0.000000  -0.000000  -0.067040   0.000000  -0.000000
      7       0.000000  -0.179159   0.000000   0.000000  -0.067040   0.000000
      8       0.000000   0.000000  -0.181619  -0.000000  -0.000000  -0.009781
      9      -0.069395   0.000000   0.000000  -0.167151  -0.000000   0.000000
     10       0.000000  -0.069395  -0.000000  -0.000000  -0.167151   0.000000
     11       0.000000   0.000000  -0.019897  -0.000000   0.000000  -0.000001
     12       4.827431  -0.000000  -0.000000  -0.019890  -0.000000   0.000000
     13      -0.000000   4.827431   0.000000  -0.000000  -0.019890   0.000000
     14      -0.000000   0.000000  -0.226398   0.000000  -0.000000  -0.107299
     15      -0.019890  -0.000000   0.000000  -0.189620   0.000000  -0.000000
     16      -0.000000  -0.019890  -0.000000   0.000000  -0.189620   0.000000
     17       0.000000   0.000000  -0.107299  -0.000000   0.000000   2.576403
     18      -0.000000   0.000000  -0.125021  -0.000000  -0.000000  -3.095453
     19       0.000000   0.000000  -0.131228  -0.000000   0.000000  -2.310048
     20       0.000000   0.000000  -0.165515  -0.000000   0.000000  -0.703183
     21       0.000000   0.000000  -0.178502   0.000000   0.000000  -0.347644
     22       0.000000   0.000000   0.031403   0.000000  -0.000000   0.000533
     23       0.000000  -0.000000   0.000000  -0.011762   0.000000  -0.000000
     24      -0.000000   0.000000   0.000000   0.000000  -0.011762   0.000000
     25      -0.000000  -0.000000   0.096562   0.000000  -0.000000   0.000131
     26      -0.000309  -0.000000  -0.000000  -0.046974   0.000000  -0.000000
     27      -0.000000  -0.000309   0.000000   0.000000  -0.046974  -0.000000
     28      -0.000000   0.000000   0.008491   0.000000  -0.000000   0.001267
     29      -0.000000  -0.000000  -0.000000  -0.002987   0.000000   0.000000
     30      -0.000000  -0.000000   0.000000   0.000000  -0.002987  -0.000000
     31      -0.000000   0.000000   0.095856  -0.000000   0.000000   0.000039
     32      -0.002987   0.000000   0.000000  -0.084420   0.000000  -0.000000
     33       0.000000  -0.002987   0.000000   0.000000  -0.084419   0.000000
                 18         19         20         21         22         23    
      0      -0.000000   0.000001  -0.000534  -0.022023  -0.000002   0.000000
      1      -0.000001   0.000001  -0.000823  -0.026507  -0.000003   0.000000
      2       0.000001   0.000002  -0.001490  -0.029775  -0.000002   0.000000
      3      -0.000823  -0.001490  -0.014342  -0.054621   0.002687   0.000000
      4      -0.026507  -0.029775  -0.054621  -0.095308   0.014899   0.000000
      5       0.000003   0.000002  -0.002687  -0.014899   0.000001  -0.000000
      6      -0.000000  -0.000000  -0.000000  -0.000000   0.000000   0.000000
      7       0.000000   0.000000   0.000000   0.000000  -0.000000  -0.000000
      8      -0.012958  -0.017376  -0.050632  -0.078742   0.017401   0.000000
      9       0.000000   0.000000  -0.000000  -0.000000   0.000000  -0.002128
     10       0.000000   0.000000   0.000000   0.000000  -0.000000   0.000000
     11      -0.000001  -0.000001  -0.000265  -0.003460  -0.000000  -0.000000
     12      -0.000000   0.000000   0.000000   0.000000   0.000000   0.000000
     13       0.000000   0.000000   0.000000   0.000000   0.000000  -0.000000
     14      -0.125021  -0.131228  -0.165515  -0.178502   0.031403   0.000000
     15      -0.000000  -0.000000  -0.000000   0.000000   0.000000  -0.011762
     16      -0.000000   0.000000   0.000000   0.000000  -0.000000   0.000000
     17      -3.095453  -2.310048  -0.703183  -0.347644   0.000533  -0.000000
     18      -2.081606  -1.841653  -0.765331  -0.396380   0.002607  -0.000000
     19      -1.841653  -1.318736  -0.704786  -0.397781   0.007142  -0.000000
     20      -0.765331  -0.704786  -0.544886  -0.403589   0.008623  -0.000000
     21      -0.396380  -0.397781  -0.403589  -0.363708   0.005400   0.000000
     22       0.002607   0.007142   0.008623   0.005400   0.079756   0.000000
     23      -0.000000  -0.000000  -0.000000   0.000000   0.000000   0.081732
     24       0.000000   0.000000   0.000000   0.000000   0.000000   0.000000
     25       0.000482   0.002167   0.018389   0.026219  -0.160756  -0.000000
     26       0.000000   0.000000  -0.000000  -0.000000  -0.000000  -0.159470
     27      -0.000000  -0.000000  -0.000000  -0.000000   0.000000   0.000000
     28       0.003268   0.002763   0.000928   0.000464  -0.179288  -0.000000
     29       0.000000   0.000000  -0.000000  -0.000000  -0.000000  -0.179159
     30      -0.000000  -0.000000  -0.000000   0.000000   0.000000  -0.000000
     31       0.000136   0.000662   0.011149   0.029760  -0.067492  -0.000000
     32      -0.000000   0.000000  -0.000000  -0.000000  -0.000000  -0.067040
     33       0.000000   0.000000  -0.000000  -0.000000  -0.000000   0.000000
                 24         25         26         27         28         29    
      0       0.000000   0.009781   0.000000   0.000000   0.000001   0.000000
      1       0.000000   0.012958   0.000000   0.000000   0.000001   0.000000
      2       0.000000   0.017376  -0.000000  -0.000000   0.000001  -0.000000
      3       0.000000   0.050632  -0.000000   0.000000   0.000265  -0.000000
      4       0.000000   0.078742  -0.000000   0.000000   0.003460  -0.000000
      5      -0.000000   0.017401  -0.000000  -0.000000  -0.000000  -0.000000
      6      -0.000000  -0.000000  -0.002128   0.000000  -0.000000   0.000000
      7       0.000000   0.000000   0.000000  -0.002128  -0.000000   0.000000
      8       0.000000   0.090611  -0.000000   0.000000   0.003072  -0.000000
      9       0.000000   0.000000  -0.020211   0.000000   0.000000  -0.000309
     10      -0.002128  -0.000000   0.000000  -0.020211  -0.000000  -0.000000
     11       0.000000   0.003072   0.000000   0.000000   0.000000  -0.000000
     12      -0.000000  -0.000000  -0.000309  -0.000000  -0.000000  -0.000000
     13       0.000000  -0.000000  -0.000000  -0.000309   0.000000  -0.000000
     14       0.000000   0.096562  -0.000000   0.000000   0.008491  -0.000000
     15       0.000000   0.000000  -0.046974   0.000000   0.000000  -0.002987
     16      -0.011762  -0.000000   0.000000  -0.046974  -0.000000   0.000000
     17       0.000000   0.000131  -0.000000  -0.000000   0.001267   0.000000
     18       0.000000   0.000482   0.000000  -0.000000   0.003268   0.000000
     19       0.000000   0.002167   0.000000  -0.000000   0.002763   0.000000
     20       0.000000   0.018389  -0.000000  -0.000000   0.000928  -0.000000
     21       0.000000   0.026219  -0.000000  -0.000000   0.000464  -0.000000
     22       0.000000  -0.160756  -0.000000   0.000000  -0.179288  -0.000000
     23       0.000000  -0.000000  -0.159470   0.000000  -0.000000  -0.179159
     24       0.081732   0.000000   0.000000  -0.159470   0.000000  -0.000000
     25       0.000000  -0.234583  -0.000000  -0.000000  -0.069414   0.000000
     26       0.000000  -0.000000  -0.221027  -0.000000   0.000000  -0.069395
     27      -0.159470  -0.000000  -0.000000  -0.221027   0.000000   0.000000
     28       0.000000  -0.069414   0.000000   0.000000   4.827194  -0.000000
     29      -0.000000   0.000000  -0.069395   0.000000  -0.000000   4.827431
     30      -0.179159   0.000000   0.000000  -0.069395  -0.000000   0.000000
     31      -0.000000  -0.181619  -0.000000  -0.000000  -0.019897   0.000000
     32       0.000000  -0.000000  -0.167151  -0.000000   0.000000  -0.019890
     33      -0.067040  -0.000000  -0.000000  -0.167151  -0.000000   0.000000
                 30         31         32         33    
      0       0.000000   0.107299   0.000000   0.000000
      1       0.000000   0.125021  -0.000000   0.000000
      2      -0.000000   0.131228  -0.000000   0.000000
      3       0.000000   0.165515  -0.000000   0.000000
      4       0.000000   0.178502   0.000000  -0.000000
      5      -0.000000   0.031403   0.000000  -0.000000
      6       0.000000   0.000000  -0.011762  -0.000000
      7       0.000000   0.000000  -0.000000  -0.011762
      8      -0.000000   0.096562  -0.000000   0.000000
      9      -0.000000   0.000000  -0.046974   0.000000
     10      -0.000309  -0.000000   0.000000  -0.046974
     11       0.000000   0.008491   0.000000   0.000000
     12      -0.000000  -0.000000  -0.002987   0.000000
     13      -0.000000   0.000000   0.000000  -0.002987
     14       0.000000   0.095856   0.000000   0.000000
     15       0.000000  -0.000000  -0.084420   0.000000
     16      -0.002987   0.000000   0.000000  -0.084419
     17      -0.000000   0.000039  -0.000000   0.000000
     18      -0.000000   0.000136  -0.000000   0.000000
     19      -0.000000   0.000662   0.000000   0.000000
     20      -0.000000   0.011149  -0.000000  -0.000000
     21       0.000000   0.029760  -0.000000  -0.000000
     22       0.000000  -0.067492  -0.000000  -0.000000
     23      -0.000000  -0.000000  -0.067040   0.000000
     24      -0.179159  -0.000000   0.000000  -0.067040
     25       0.000000  -0.181619  -0.000000  -0.000000
     26       0.000000  -0.000000  -0.167151  -0.000000
     27      -0.069395  -0.000000  -0.000000  -0.167151
     28      -0.000000  -0.019897   0.000000  -0.000000
     29       0.000000   0.000000  -0.019890   0.000000
     30       4.827431  -0.000000   0.000000  -0.019890
     31      -0.000000  -0.226398  -0.000000  -0.000000
     32       0.000000  -0.000000  -0.189620   0.000000
     33      -0.019890  -0.000000   0.000000  -0.189619



                    ********************************
                    * MULLIKEN POPULATION ANALYSIS *
                    ********************************

-----------------------
MULLIKEN ATOMIC CHARGES
-----------------------
   0 Li:    1.000000
   1 Li:    1.000000
Sum of atomic charges:    2.0000000

--------------------------------
MULLIKEN REDUCED ORBITAL CHARGES
--------------------------------
  0 Lis       :     1.999844  s :     1.999844
      pz      :     0.000156  p :     0.000156
      px      :     0.000000
      py      :     0.000000

  1 Lis       :     1.999844  s :     1.999844
      pz      :     0.000156  p :     0.000156
      px      :     0.000000
      py      :     0.000000


------------------------
MULLIKEN OVERLAP CHARGES
------------------------


-------------------------------------------
MULLIKEN REDUCED ORBITAL POPULATIONS PER MO
--------------------------------------------
THRESHOLD FOR PRINTING IS 0.1%%
                      0         1         2         3         4         5   
                  -2.57298  -2.57298  -0.34125  -0.31303  -0.25264  -0.24604
                   2.00000   2.00000   0.00000   0.00000   0.00000   0.00000
                  --------  --------  --------  --------  --------  --------
 0 Li s              50.0      50.0      42.5      50.3       8.3      -0.0
 0 Li pz              0.0      -0.0       7.5      -0.3      41.7       0.0
 0 Li px              0.0       0.0       0.0       0.0       0.0      49.4
 0 Li py              0.0       0.0       0.0       0.0       0.0       0.6
 1 Li s              50.0      50.0      42.5      50.3       8.3       0.0
 1 Li pz              0.0      -0.0       7.5      -0.3      41.7       0.0
 1 Li px              0.0       0.0       0.0       0.0       0.0      49.4
 1 Li py              0.0       0.0       0.0       0.0       0.0       0.6

                      6         7         8         9        10        11   
                  -0.24604  -0.23179  -0.23179  -0.21809  -0.14235  -0.13403
                   0.00000   0.00000   0.00000   0.00000   0.00000   0.00000
                  --------  --------  --------  --------  --------  --------
 0 Li s               0.0       0.0       0.0      -0.7      35.2       0.0
 0 Li pz              0.0       0.0      -0.0      50.7      14.8       0.0
 0 Li px              0.6      49.5       0.5       0.0       0.0      49.1
 0 Li py             49.4       0.5      49.5       0.0       0.0       0.9
 1 Li s               0.0       0.0       0.0      -0.7      35.2       0.0
 1 Li pz              0.0       0.0       0.0      50.7      14.8       0.0
 1 Li px              0.6      49.5       0.5       0.0       0.0      49.1
 1 Li py             49.4       0.5      49.5       0.0       0.0       0.9

                     12        13        14        15        16        17   
                  -0.13403  -0.12058  -0.11327  -0.11311  -0.11311  -0.08455
                   0.00000   0.00000   0.00000   0.00000   0.00000   0.00000
                  --------  --------  --------  --------  --------  --------
 0 Li s               0.0      14.4      14.1       0.0       0.0      35.8
 0 Li pz              0.0      35.6      35.9       0.0       0.0      14.2
 0 Li px              0.9       0.0       0.0      46.3       3.7       0.0
 0 Li py             49.1       0.0       0.0       3.7      46.3       0.0
 1 Li s               0.0      14.4      14.1       0.0       0.0      35.8
 1 Li pz              0.0      35.6      35.9       0.0       0.0      14.2
 1 Li px              0.9       0.0       0.0      46.3       3.7       0.0
 1 Li py             49.1       0.0       0.0       3.7      46.3       0.0

                     18        19        20        21        22        23   
                   0.22558   0.24466   0.24466   0.25434   0.25434   0.27091
                   0.00000   0.00000   0.00000   0.00000   0.00000   0.00000
                  --------  --------  --------  --------  --------  --------
 0 Li s              -0.0      -0.0      -0.0      -0.0      -0.0       0.2
 0 Li pz             50.0       0.0       0.0       0.0       0.0      49.8
 0 Li px              0.0      49.1       0.9      46.3       3.7       0.0
 0 Li py              0.0       0.9      49.1       3.7      46.3       0.0
 1 Li s              -0.0      -0.0      -0.0      -0.0      -0.0       0.2
 1 Li pz             50.0       0.0       0.0       0.0       0.0      49.8
 1 Li px              0.0      49.1       0.9      46.3       3.7       0.0
 1 Li py              0.0       0.9      49.1       3.7      46.3       0.0

                     24        25        26        27        28        29   
                   1.09789   1.12317   5.50845   5.51379   5.51379   5.51725
                   0.00000   0.00000   0.00000   0.00000   0.00000   0.00000
                  --------  --------  --------  --------  --------  --------
 0 Li s              50.0      50.1       0.0      -0.0       0.0      -0.0
 0 Li pz              0.0      -0.1      50.0       0.0       0.0       0.0
 0 Li px              0.0       0.0       0.0      49.1       0.9      46.2
 0 Li py              0.0       0.0       0.0       0.9      49.1       3.8
 1 Li s              50.0      50.1       0.0      -0.0      -0.0       0.0
 1 Li pz              0.0      -0.1      50.0       0.0       0.0       0.0
 1 Li px              0.0       0.0       0.0      49.1       0.9      46.2
 1 Li py             -0.0       0.0       0.0       0.9      49.1       3.8

                     30        31        32        33   
                   5.51725   5.52438  13.85828  13.88852
                   0.00000   0.00000   0.00000   0.00000
                  --------  --------  --------  --------
 0 Li s              -0.0       0.0      50.0      50.0
 0 Li pz              0.0      50.0      -0.0       0.0
 0 Li px              3.8       0.0       0.0       0.0
 0 Li py             46.2       0.0       0.0       0.0
 1 Li s               0.0       0.0      50.0      50.0
 1 Li pz              0.0      50.0      -0.0       0.0
 1 Li px              3.8       0.0       0.0       0.0
 1 Li py             46.2       0.0      -0.0       0.0


                     *******************************
                     * LOEWDIN POPULATION ANALYSIS *
                     *******************************

----------------------
LOEWDIN ATOMIC CHARGES
----------------------
   0 Li:    1.000000
   1 Li:    1.000000

-------------------------------
LOEWDIN REDUCED ORBITAL CHARGES
-------------------------------
  0 Lis       :     1.999744  s :     1.999744
      pz      :     0.000256  p :     0.000256
      px      :     0.000000
      py      :     0.000000

  1 Lis       :     1.999744  s :     1.999744
      pz      :     0.000256  p :     0.000256
      px      :     0.000000
      py      :     0.000000


---------------------------------
LOEWDIN BOND ORDERS (THRESH 0.050000)
---------------------------------


------------------------------------------
LOEWDIN REDUCED ORBITAL POPULATIONS PER MO
-------------------------------------------
THRESHOLD FOR PRINTING IS 0.1%%
                      0         1         2         3         4         5   
                  -2.57298  -2.57298  -0.34125  -0.31303  -0.25264  -0.24604
                   2.00000   2.00000   0.00000   0.00000   0.00000   0.00000
                  --------  --------  --------  --------  --------  --------
 0 Li s              50.0      50.0      40.7      48.2       9.0       0.0
 0 Li pz              0.0       0.0       9.3       1.8      41.0       0.0
 0 Li px              0.0       0.0       0.0       0.0       0.0      49.4
 0 Li py              0.0       0.0       0.0       0.0       0.0       0.6
 1 Li s              50.0      50.0      40.7      48.2       9.0       0.0
 1 Li pz              0.0       0.0       9.3       1.8      41.0       0.0
 1 Li px              0.0       0.0       0.0       0.0       0.0      49.4
 1 Li py              0.0       0.0       0.0       0.0       0.0       0.6

                      6         7         8         9        10        11   
                  -0.24604  -0.23179  -0.23179  -0.21809  -0.14235  -0.13403
                   0.00000   0.00000   0.00000   0.00000   0.00000   0.00000
                  --------  --------  --------  --------  --------  --------
 0 Li s               0.0       0.0       0.0       0.3      35.0       0.0
 0 Li pz              0.0       0.0       0.0      49.7      15.0       0.0
 0 Li px              0.6      49.5       0.5       0.0       0.0      49.1
 0 Li py             49.4       0.5      49.5       0.0       0.0       0.9
 1 Li s               0.0       0.0       0.0       0.3      35.0       0.0
 1 Li pz              0.0       0.0       0.0      49.7      15.0       0.0
 1 Li px              0.6      49.5       0.5       0.0       0.0      49.1
 1 Li py             49.4       0.5      49.5       0.0       0.0       0.9

                     12        13        14        15        16        17   
                  -0.13403  -0.12058  -0.11327  -0.11311  -0.11311  -0.08455
                   0.00000   0.00000   0.00000   0.00000   0.00000   0.00000
                  --------  --------  --------  --------  --------  --------
 0 Li s               0.0      14.2      15.3       0.0       0.0      37.4
 0 Li pz              0.0      35.8      34.7       0.0       0.0      12.6
 0 Li px              0.9       0.0       0.0      46.3       3.7       0.0
 0 Li py             49.1       0.0       0.0       3.7      46.3       0.0
 1 Li s               0.0      14.2      15.3       0.0       0.0      37.4
 1 Li pz              0.0      35.8      34.7       0.0       0.0      12.6
 1 Li px              0.9       0.0       0.0      46.3       3.7       0.0
 1 Li py             49.1       0.0       0.0       3.7      46.3       0.0

                     18        19        20        21        22        23   
                   0.22558   0.24466   0.24466   0.25434   0.25434   0.27091
                   0.00000   0.00000   0.00000   0.00000   0.00000   0.00000
                  --------  --------  --------  --------  --------  --------
 0 Li pz             50.0       0.0       0.0       0.0       0.0      50.0
 0 Li px              0.0      49.1       0.9      46.3       3.7       0.0
 0 Li py              0.0       0.9      49.1       3.7      46.3       0.0
 1 Li pz             50.0       0.0       0.0       0.0       0.0      50.0
 1 Li px              0.0      49.1       0.9      46.3       3.7       0.0
 1 Li py              0.0       0.9      49.1       3.7      46.3       0.0

                     24        25        26        27        28        29   
                   1.09789   1.12317   5.50845   5.51379   5.51379   5.51725
                   0.00000   0.00000   0.00000   0.00000   0.00000   0.00000
                  --------  --------  --------  --------  --------  --------
 0 Li s              50.0      50.0       0.0       0.0       0.0       0.0
 0 Li pz              0.0       0.0      50.0       0.0       0.0       0.0
 0 Li px              0.0       0.0       0.0      49.1       0.9      46.2
 0 Li py              0.0       0.0       0.0       0.9      49.1       3.8
 1 Li s              50.0      50.0       0.0       0.0       0.0       0.0
 1 Li pz              0.0       0.0      50.0       0.0       0.0       0.0
 1 Li px              0.0       0.0       0.0      49.1       0.9      46.2
 1 Li py              0.0       0.0       0.0       0.9      49.1       3.8

                     30        31        32        33   
                   5.51725   5.52438  13.85828  13.88852
                   0.00000   0.00000   0.00000   0.00000
                  --------  --------  --------  --------
 0 Li s               0.0       0.0      50.0      50.0
 0 Li pz              0.0      50.0       0.0       0.0
 0 Li px              3.8       0.0       0.0       0.0
 0 Li py             46.2       0.0       0.0       0.0
 1 Li s               0.0       0.0      50.0      50.0
 1 Li pz              0.0      50.0       0.0       0.0
 1 Li px              3.8       0.0       0.0       0.0
 1 Li py             46.2       0.0       0.0       0.0


                      *****************************
                      * MAYER POPULATION ANALYSIS *
                      *****************************

  NA   - Mulliken gross atomic population
  ZA   - Total nuclear charge
  QA   - Mulliken gross atomic charge
  VA   - Mayer's total valence
  BVA  - Mayer's bonded valence
  FA   - Mayer's free valence

  ATOM       NA         ZA         QA         VA         BVA        FA
  0 Li     2.0000     3.0000     1.0000     0.0008     0.0008     0.0000
  1 Li     2.0000     3.0000     1.0000     0.0008     0.0008     0.0000

  Mayer bond orders larger than 0.100000
  => no bond orders to print

Now starting NBO....

 *********************************** NBO 7.0 ***********************************
             N A T U R A L   A T O M I C   O R B I T A L   A N D
          N A T U R A L   B O N D   O R B I T A L   A N A L Y S I S
 ************************** Muhammed Shuaibi (S102683) *************************
  (c) Copyright 1996-2021 Board of Regents of the University of Wisconsin System
      on behalf of the Theoretical Chemistry Institute.  All rights reserved.

          Cite this program [NBO 7.0.10 (8-Feb-2021)] as:

          NBO 7.0.  E. D. Glendening, J. K. Badenhoop, A. E. Reed,
          J. E. Carpenter, J. A. Bohmann, C. M. Morales, P. Karafiloglou,
          C. R. Landis, and F. Weinhold, Theoretical Chemistry Institute,
          University of Wisconsin, Madison, WI (2018)

       /NPA    / : Natural Population Analysis
       /NBO    / : Natural Bond Orbital Analysis
       /E2PERT / : Print perturbative analysis of NBO Fock matrix
                   Print threshold set to 0.1

 Job title: ORCA Job: /tmp/tmpt7tg2hh5/orca


 NATURAL POPULATIONS:  Natural atomic orbital occupancies

  NAO Atom No lang   Type(AO)    Occupancy      Energy
 -------------------------------------------------------
   1   Li  1  s      Cor( 1s)     1.99999      -2.57297
   2   Li  1  s      Val( 2s)     0.00000      -0.20467
   3   Li  1  s      Ryd( 3s)     0.00000       0.05960
   4   Li  1  s      Ryd( 5s)     0.00000       9.76995
   5   Li  1  s      Ryd( 4s)     0.00000       4.86270
   6   Li  1  px     Ryd( 4p)     0.00000       0.23064
   7   Li  1  px     Ryd( 2p)     0.00000      -0.18431
   8   Li  1  px     Ryd( 3p)     0.00000       0.03478
   9   Li  1  px     Ryd( 5p)     0.00000       5.32143
  10   Li  1  py     Ryd( 4p)     0.00000       0.23064
  11   Li  1  py     Ryd( 2p)     0.00000      -0.18431
  12   Li  1  py     Ryd( 3p)     0.00000       0.03478
  13   Li  1  py     Ryd( 5p)     0.00000       5.32143
  14   Li  1  pz     Ryd( 4p)     0.00000       0.23058
  15   Li  1  pz     Ryd( 2p)     0.00000      -0.10956
  16   Li  1  pz     Ryd( 3p)     0.00000       0.02460
  17   Li  1  pz     Ryd( 5p)     0.00000       5.32251

  18   Li  2  s      Cor( 1s)     1.99999      -2.57297
  19   Li  2  s      Val( 2s)     0.00000      -0.20467
  20   Li  2  s      Ryd( 3s)     0.00000       0.05959
  21   Li  2  s      Ryd( 5s)     0.00000      13.72284
  22   Li  2  s      Ryd( 4s)     0.00000       0.90982
  23   Li  2  px     Ryd( 4p)     0.00000       0.23064
  24   Li  2  px     Ryd( 2p)     0.00000      -0.18431
  25   Li  2  px     Ryd( 3p)     0.00000       0.02423
  26   Li  2  px     Ryd( 5p)     0.00000       5.33197
  27   Li  2  py     Ryd( 4p)     0.00000       0.23064
  28   Li  2  py     Ryd( 2p)     0.00000      -0.18431
  29   Li  2  py     Ryd( 3p)     0.00000       0.02423
  30   Li  2  py     Ryd( 5p)     0.00000       5.33197
  31   Li  2  pz     Ryd( 4p)     0.00000       0.23058
  32   Li  2  pz     Ryd( 2p)     0.00000      -0.10956
  33   Li  2  pz     Ryd( 3p)     0.00000       0.01587
  34   Li  2  pz     Ryd( 5p)     0.00000       5.33124


 Summary of Natural Population Analysis:

                                     Natural Population
             Natural    ---------------------------------------------
  Atom No    Charge        Core      Valence    Rydberg      Total
 --------------------------------------------------------------------
   Li  1    1.00000      1.99999     0.00000    0.00000     2.00000
   Li  2    1.00000      1.99999     0.00000    0.00000     2.00000
 ====================================================================
 * Total *  2.00000      3.99999     0.00000    0.00001     4.00000

                                 Natural Population
 ---------------------------------------------------------
   Core                       3.99999 ( 99.9997% of    4)
   Valence                    0.00000 (  0.0000% of    0)
   Natural Minimal Basis      3.99999 ( 99.9998% of    4)
   Natural Rydberg Basis      0.00001 (  0.0002% of    4)
 ---------------------------------------------------------

    Atom No         Natural Electron Configuration
 ----------------------------------------------------------------------------
     Li  1      [core]
     Li  2      [core]


 NATURAL BOND ORBITAL ANALYSIS:

                            Occupancies       Lewis Structure    Low   High
         Max    Occ     -------------------  -----------------   occ   occ
  Cycle  Ctr   Thresh    Lewis   non-Lewis     CR  BD  nC  LP    (L)   (NL)
 ============================================================================
    1     2     1.90     3.99999   0.00001      2   0   0   0     0      0
 ----------------------------------------------------------------------------

 Structure accepted: No low occupancy Lewis orbitals

 -------------------------------------------------------
   Core                      3.99999 (100.000% of   4)
  ==================      =============================
   Total Lewis               3.99999 (100.000% of   4)
  -----------------------------------------------------
   Valence non-Lewis         0.00000 (  0.000% of   4)
   Rydberg non-Lewis         0.00001 (  0.000% of   4)
  ==================      =============================
   Total non-Lewis           0.00001 (  0.000% of   4)
 -------------------------------------------------------


     (Occupancy)   Bond orbital / Coefficients / Hybrids
 ------------------ Lewis ------------------------------------------------------
   1. (1.99999) CR ( 1)Li  1            s(100.00%)
                                         1.0000  0.0000  0.0000  0.0000  0.0000
                                         0.0000  0.0000  0.0000  0.0000  0.0000
                                         0.0000  0.0000  0.0000  0.0000  0.0000
                                         0.0000  0.0000
   2. (1.99999) CR ( 1)Li  2            s(100.00%)
                                         1.0000  0.0000  0.0000  0.0000  0.0000
                                         0.0000  0.0000  0.0000  0.0000  0.0000
                                         0.0000  0.0000  0.0000  0.0000  0.0000
                                         0.0000  0.0000
 ---------------- non-Lewis ----------------------------------------------------
   3. (0.00000) LV ( 1)Li  1            s( 49.29%)p 1.03( 50.71%)
   4. (0.00000) LV ( 1)Li  2            s( 49.29%)p 1.03( 50.71%)
   5. (0.00000) RY ( 1)Li  1            s(  6.45%)p14.49( 93.55%)
   6. (0.00000) RY ( 2)Li  1            s( 99.70%)p 0.00(  0.30%)
   7. (0.00000) RY ( 3)Li  1            s( 99.25%)p 0.01(  0.75%)
   8. (0.00000) RY ( 4)Li  1            s( 21.40%)p 3.67( 78.60%)
   9. (0.00000) RY ( 5)Li  1            s(  0.00%)p 1.00(100.00%)
  10. (0.00000) RY ( 6)Li  1            s(  0.00%)p 1.00(100.00%)
  11. (0.00000) RY ( 7)Li  1            s(  0.00%)p 1.00(100.00%)
  12. (0.00000) RY ( 8)Li  1            s(  0.00%)p 1.00(100.00%)
  13. (0.00000) RY ( 9)Li  1            s(  0.00%)p 1.00(100.00%)
  14. (0.00000) RY (10)Li  1            s(  0.00%)p 1.00(100.00%)
  15. (0.00000) RY (11)Li  1            s(  0.00%)p 1.00(100.00%)
  16. (0.00000) RY (12)Li  1            s(  0.00%)p 1.00(100.00%)
  17. (0.00000) RY (13)Li  1            s(  0.00%)p 1.00(100.00%)
  18. (0.00000) RY (14)Li  1            s( 24.12%)p 3.15( 75.88%)
  19. (0.00000) RY (15)Li  1            s( 99.79%)p 0.00(  0.21%)
  20. (0.00000) RY ( 1)Li  2            s(  6.45%)p14.49( 93.55%)
  21. (0.00000) RY ( 2)Li  2            s( 82.69%)p 0.21( 17.31%)
  22. (0.00000) RY ( 3)Li  2            s(  0.80%)p99.99( 99.20%)
  23. (0.00000) RY ( 4)Li  2            s(  0.00%)p 1.00(100.00%)
  24. (0.00000) RY ( 5)Li  2            s(  0.00%)p 1.00(100.00%)
  25. (0.00000) RY ( 6)Li  2            s(  0.00%)p 1.00(100.00%)
  26. (0.00000) RY ( 7)Li  2            s(  0.00%)p 1.00(100.00%)
  27. (0.00000) RY ( 8)Li  2            s(  0.00%)p 1.00(100.00%)
  28. (0.00000) RY ( 9)Li  2            s(  0.00%)p 1.00(100.00%)
  29. (0.00000) RY (10)Li  2            s(  0.00%)p 1.00(100.00%)
  30. (0.00000) RY (11)Li  2            s(  0.00%)p 1.00(100.00%)
  31. (0.00000) RY (12)Li  2            s(  0.01%)p 1.00( 99.99%)
  32. (0.00000) RY (13)Li  2            s( 61.13%)p 0.64( 38.87%)
  33. (0.00000) RY (14)Li  2            s( 99.66%)p 0.00(  0.34%)
  34. (0.00000) RY (15)Li  2            s( 99.98%)p 0.00(  0.02%)


 NHO DIRECTIONALITY AND BOND BENDING (deviation from line of nuclear centers at
                                      the position of maximum hybrid amplitude)

         [Thresholds for printing:  angular deviation  >  1.0 degree]
                                    p- or d-character  > 25.0%
                                    orbital occupancy  >  0.10e

                        Line of Centers        Hybrid 1             Hybrid 2
                        ---------------  -------------------  ------------------
           NBO            Theta   Phi    Theta   Phi    Dev   Theta   Phi    Dev
 ===============================================================================
    None exceeding thresholds


 SECOND ORDER PERTURBATION THEORY ANALYSIS OF FOCK MATRIX IN NBO BASIS

     Threshold for printing:   0.10 kcal/mol
    (Intermolecular threshold: 0.01 kcal/mol)
                                                          E(2) E(NL)-E(L) F(L,NL)
      Donor (L) NBO              Acceptor (NL) NBO      kcal/mol   a.u.    a.u.
 ===============================================================================

 within unit  1
       None above threshold

 from unit  1 to unit  2
       None above threshold

 from unit  2 to unit  1
       None above threshold

 within unit  2
       None above threshold


 NATURAL BOND ORBITALS (Summary):

                                                     Principal Delocalizations
           NBO                 Occupancy    Energy   (geminal,vicinal,remote)
 ===============================================================================
 Molecular unit  1  (Li)
 ------ Lewis --------------------------------------
    1. CR ( 1)Li  1             1.99999    -2.57297
 ------ non-Lewis ----------------------------------
    3. LV ( 1)Li  1             0.00000    -0.11851
    5. RY ( 1)Li  1             0.00000     0.19937
    6. RY ( 2)Li  1             0.00000     2.69224
    7. RY ( 3)Li  1             0.00000     5.34315
    8. RY ( 4)Li  1             0.00000     0.06098
    9. RY ( 5)Li  1             0.00000     5.32250
   10. RY ( 6)Li  1             0.00000    -0.20451
   11. RY ( 7)Li  1             0.00000     0.06697
   12. RY ( 8)Li  1             0.00000    -0.13565
   13. RY ( 9)Li  1             0.00000     0.71079
   14. RY (10)Li  1             0.00000     1.78446
   15. RY (11)Li  1             0.00000     2.84032
   16. RY (12)Li  1             0.00000     0.42128
   17. RY (13)Li  1             0.00000     5.32143
   18. RY (14)Li  1             0.00000    -0.01441
   19. RY (15)Li  1             0.00000     6.47039
          -------------------------------
                 Total Lewis    1.99999  ( 99.9997%)
           Valence non-Lewis    0.00000  (  0.0001%)
           Rydberg non-Lewis    0.00000  (  0.0002%)
          -------------------------------
               Total unit  1    2.00000  (100.0000%)
              Charge unit  1    1.00000

 Molecular unit  2  (Li)
 ------ Lewis --------------------------------------
    2. CR ( 1)Li  2             1.99999    -2.57297
 ------ non-Lewis ----------------------------------
    4. LV ( 1)Li  2             0.00000    -0.11851
   20. RY ( 1)Li  2             0.00000     0.19937
   21. RY ( 2)Li  2             0.00000     0.72287
   22. RY ( 3)Li  2             0.00000     0.17294
   23. RY ( 4)Li  2             0.00000     5.33197
   24. RY ( 5)Li  2             0.00000     0.02229
   25. RY ( 6)Li  2             0.00000     1.21549
   26. RY ( 7)Li  2             0.00000     0.22736
   27. RY ( 8)Li  2             0.00000     2.56986
   28. RY ( 9)Li  2             0.00000     0.02595
   29. RY (10)Li  2             0.00000     1.38984
   30. RY (11)Li  2             0.00000     0.02231
   31. RY (12)Li  2             0.00000     5.18340
   32. RY (13)Li  2             0.00000     0.42548
   33. RY (14)Li  2             0.00000     1.33031
   34. RY (15)Li  2             0.00000    12.03986
          -------------------------------
                 Total Lewis    1.99999  ( 99.9997%)
           Valence non-Lewis    0.00000  (  0.0001%)
           Rydberg non-Lewis    0.00000  (  0.0002%)
          -------------------------------
               Total unit  2    2.00000  (100.0000%)
              Charge unit  2    1.00000

 $CHOOSE
 $END

 NBO analysis completed in 0.05 CPU seconds (0 wall seconds)
 Maximum scratch memory used by NBO was 352166 words (2.69 MB)
Stopping NBO...-------
TIMINGS
-------

Total SCF time: 0 days 0 hours 0 min 1 sec 

Total time                  ....       1.593 sec
Sum of individual times     ....       1.571 sec  ( 98.6%)

SCF preparation             ....       0.187 sec  ( 11.7%)
Fock matrix formation       ....       1.130 sec  ( 70.9%)
  Startup                   ....       0.009 sec  (  0.8% of F)
  Split-RI-J                ....       0.033 sec  (  2.9% of F)
  Chain of spheres X        ....       0.333 sec  ( 29.5% of F)
  XC integration            ....       0.731 sec  ( 64.7% of F)
    XC Preparation          ....       0.008 sec  (  1.0% of XC)
    XC Prescreening         ....       0.076 sec  ( 10.4% of XC)
    Basis function eval.    ....       0.327 sec  ( 44.8% of XC)
    Density eval.           ....       0.011 sec  (  1.5% of XC)
    XC-Functional eval.     ....       0.031 sec  (  4.3% of XC)
    XC-Potential eval.      ....       0.009 sec  (  1.2% of XC)
Diagonalization             ....       0.000 sec  (  0.0%)
Density matrix formation    ....       0.010 sec  (  0.7%)
Total Energy calculation    ....       0.016 sec  (  1.0%)
Population analysis         ....       0.125 sec  (  7.9%)
Orbital Transformation      ....       0.012 sec  (  0.8%)
Orbital Orthonormalization  ....       0.000 sec  (  0.0%)
DIIS solution               ....       0.091 sec  (  5.7%)
Finished LeanSCF after   1.6 sec

Maximum memory used throughout the entire LEANSCF-calculation: 5.8 MB


           ************************************************************
           *        Program running with 24 parallel MPI-processes    *
           *              working on a common directory               *
           ************************************************************

------------------------------------------------------------------------------
                         ORCA PROPERTY INTEGRAL CALCULATIONS
------------------------------------------------------------------------------

GBWName                                   ... /tmp/tmpt7tg2hh5/orca.gbw
Number of atoms                           ...      2
Number of basis functions                 ...     34
Max core memory                           ...   1712 MB

Dipole integrals                          ... YES
Quadrupole integrals                      ... YES
Linear momentum integrals                 ...  NO
Angular momentum integrals                ...  NO
Higher moments length integrals           ...  NO
Higher moments velocity integrals         ...  NO
Kinetic energy integrals                  ...  NO
GIAO right hand sides                     ...  NO
GIAO dipole derivative integrals          ...  NO
SOC integrals                             ...  NO
EPR diamagnetic integrals (GIAO)          ...  NO
EPR gauge integrals                       ...  NO
Field gradient integrals                  ...  NO (   0 nuclei)
Spin-dipole/Fermi contact integrals       ...  NO (   0 nuclei)
Contact density integrals                 ...  NO (   0 nuclei)
Nucleus-orbit integrals                   ...  NO (   0 nuclei)
Geometric perturbations                   ...  NO (   2 nuclei)

Choice of electric origin   ... Center of mass
Position of electric origin ... (  0.0000,  0.0000,  4.9133) 
Choice of magnetic origin   ... GIAO
Position of magnetic origin ... (  0.0000,  0.0000,  0.0000) 

Calculating integrals                     ... Electric Dipole (Length)     done (  0.0 sec)
Calculating integrals                     ... Electric Quadrupole (Length) done (  0.0 sec)

Property integrals calculated in   0.0 sec

Maximum memory used throughout the entire PROPINT-calculation: 4.6 MB

-------------------------   --------------------
FINAL SINGLE POINT ENERGY       -14.449960366705
-------------------------   --------------------



           ************************************************************
           *        Program running with 24 parallel MPI-processes    *
           *              working on a common directory               *
           ************************************************************
------------------------------------------------------------------------------
                         ORCA SCF GRADIENT CALCULATION
------------------------------------------------------------------------------

Nuc. rep. gradient        (SHARK) ... done (  0.0 sec)
HCore & Overlap gradient  (SHARK) ... done (  0.0 sec)
Split-RIJ-J gradient      (SHARK) ... done (  0.2 sec)
COSX-gradient                     ... done (  0.1 sec)
XC gradient                       ... done (  0.0 sec)
NL correlation gradient           ... done (  0.1 sec)

------------------
CARTESIAN GRADIENT
------------------

   1   Li  :    0.000000001    0.000000001    0.010346621
   2   Li  :   -0.000000001   -0.000000001   -0.010346621

Difference to translation invariance:
           :    0.0000000000   -0.0000000000    0.0000000000

Difference to rotation invariance:
           :    0.0000000110   -0.0000000073    0.0000000000

Norm of the Cartesian gradient     ...    0.0146323313
RMS gradient                       ...    0.0059736242
MAX gradient                       ...    0.0103466207

-------
TIMINGS
-------

Total SCF gradient time     ....        0.375 sec

Densities                   ....       0.000 sec  (  0.1%)
One electron gradient       ....       0.007 sec  (  1.8%)
RI-J Coulomb gradient       ....       0.171 sec  ( 45.5%)
COSX gradient               ....       0.120 sec  ( 32.0%)
XC gradient                 ....       0.020 sec  (  5.3%)
NL correlation gradient     ....       0.057 sec  ( 15.2%)

Maximum memory used throughout the entire SCFGRAD-calculation: 6.4 MB


           ************************************************************
           *        Program running with 24 parallel MPI-processes    *
           *              working on a common directory               *
           ************************************************************

------------------------------------------------------------------------------
                              ORCA PROPERTY CALCULATIONS
------------------------------------------------------------------------------

GBWName                                 ... /tmp/tmpt7tg2hh5/orca.gbw
Number of atoms                         ...      2
Number of basis functions               ...     34
Max core memory                         ...   1712 MB

Electric properties:
Dipole moment                           ... YES
Quadrupole moment                       ... YES
Static polarizability (Dipole/Dipole)   ...  NO
Static polarizability (Dipole/Quad.)    ...  NO
Static polarizability (Quad./Quad.)     ...  NO
Static polarizability (Velocity)        ...  NO

Atomic electric properties:
Dipole moment                           ...  NO
Quadrupole moment                       ...  NO
Static polarizability                   ...  NO

Choice of electric origin               ... Center of mass
Position of electric origin             ...     0.000000     0.000000     4.913286

General magnetic properties:
Magnetizability                         ...  NO

EPR properties:
g-Tensor (aka g-matrix)                 ...  NO
Zero-Field splitting spin-orbit         ...  NO
Zero-field splitting spin-spin          ...  NO
Hyperfine couplings                     ...  NO (   0 nuclei)
Quadrupole couplings                    ...  NO (   0 nuclei)
Contact density                         ...  NO (   0 nuclei)

NMR properties:
Chemical shifts                         ...  NO (   0 nuclei)
Spin-rotation constants                 ...  NO (   0 nuclei)
Spin-spin couplings                     ...  NO (   0 nuclei,    0 pairs)

Choice of magnetic origin               ... GIAO
Position of magnetic origin             ...     0.000000     0.000000     0.000000

Properties with geometric perturbations:
SCF Hessian                             ...  NO
IR spectrum                             ...  NO
VCD spectrum                            ...  NO
X-ray spectroscopy properties:
SCF XES/XAS/RIXS spectra                ...  NO


-------------
DIPOLE MOMENT
-------------

Method             : SCF
Type of density    : Electron Density
Multiplicity       :   1
Irrep              :   0
Energy             :   -14.4499603667049161 Eh
Relativity type    : 
Basis              : AO
                                X                 Y                 Z
Electronic contribution:     -0.000000000       0.000000000       0.000000000
Nuclear contribution   :      0.000000000       0.000000000      -0.000000000
                        -----------------------------------------
Total Dipole Moment    :     -0.000000000       0.000000000       0.000000000
                        -----------------------------------------
Magnitude (a.u.)       :      0.000000000
Magnitude (Debye)      :      0.000000000



--------------------
Rotational spectrum 
--------------------
 
Rotational constants in cm-1:             0.000000             0.179638             0.179638 
Rotational constants in MHz :             0.000000          5385.415530          5385.415530 

Dipole components along the rotational axes: 
x,y,z [a.u.] :     0.000000     0.000000    -0.000000 
x,y,z [Debye]:     0.000000     0.000000    -0.000000 

 

Dipole moment calculation done in   0.0 sec 

-----------------
QUADRUPOLE MOMENT
-----------------

Method             : SCF
Type of density    : Electron Density
Multiplicity       :   1
Irrep              :   0
Energy             :   -14.4499603667049161 Eh
Relativity type    : 
Basis              : AO

                XX              YY              ZZ              XY              XZ              YZ
  NUC        0.000000000     0.000000000   144.842273890     0.000000000     0.000000000     0.000000000
  EL        -0.603029327    -0.603029327   -97.126876077     0.000000000     0.000000000     0.000000000
  TOT       -0.603029327    -0.603029327    47.715397813     0.000000000     0.000000000     0.000000000 (a.u.)
            -0.811095068    -0.811095068    64.178841925     0.000000000     0.000000000     0.000000000 (Buckingham)

diagonalized tensor:
            -0.603029327    -0.603029327    47.715397813 (a.u.)
            -0.811095068    -0.811095068    64.178841925 (Buckingham)
           -64.989936994   -64.989936994   129.979873987 (traceless form in Buckingham)

             0.909170053     0.416425041     0.000000000
            -0.416425041     0.909170053     0.000000000
             0.000000000    -0.000000000     1.000000000
        
Isotropic quadrupole :    15.503113053

Quadrupole moment calculation done in   0.0 sec (  0.0 sec for integrals)

Maximum memory used throughout the entire PROP-calculation: 3.5 MB

--------------------------------
SUGGESTED CITATIONS FOR THIS RUN
--------------------------------

Below you find a list of papers that are relevant to this ORCA run
We neither can nor want to force you to cite these papers, but we appreciate if you do
You receive ORCA, which is the product of decades of hard work by many enthusiastic individuals, for free
The only thing we kindly ask in return is that you cite our papers,
We deeply appreciate it, if you show your appreciation for ORCA by not just citing the generic ORCA reference.

Please note that relegating all ORCA citations to the supporting information does *not* help us.
SI sections are not indexed - citations you put there will not count into any citation statistics
But we need these citations in order to attract the funding resources that allow us to do what we are doing

Therefore, if you are a happy ORCA user, please consider citing a few of the papers listed below in the main body of your paper

In addition to the list printed below, the program has created the file /tmp/tmpt7tg2hh5/orca.bibtex that contains the list in bibtex format
You can import this file easily into all common literature databanks and citation aid programs


List of essential papers. We consider these as the minimum necessary citations

  1. Neese,F.
     Software update: the ORCA program system, version 5.0
     WIRES Comput. Molec. Sci., 2022 12(1)e1606
     doi.org/10.1002/wcms.1606

List of papers to cite with high priority. The work reported in these papers was absolutely
necessary for this run to complete.
Our perspective: the developers of density functionals and basis sets usually get cited in chemistry papers
Good! But without the algorithms to do something with them, the functionals or basis sets would not do anything.
Hence, in our opinion, the algorithm design and method developments papers are equally worthy of getting cited

  1. Neese,F.
     An improvement of the resolution of the identity approximation for the formation of the Coulomb matrix
     J. Comp. Chem., 2003 24(14)1740-1747
     doi.org/10.1002/jcc.10318
  2. Neese,F.; Wennmohs,F.; Hansen,A.; Becker,U.
     Efficient, approximate and parallel Hartree-Fock and hybrid DFT calculations. A 'chain-of-spheres' algorithm for the Hartree-Fock exchange
     Chem. Phys., 2009 356(1-3)98-109
     doi.org/10.1016/j.chemphys.2008.10.036
  3. Helmich-Paris,B.; de Souza,B.; Neese,F.; Izsák,R.
     An improved chain of spheres for exchange algorithm
     J. Chem. Phys., 2021 155 104109
     doi.org/doi: 10.1063/5.0058766.
  4. Neese,F.
     The SHARK Integral Generation and Digestion System
     J. Comp. Chem., 2022  1-16
     doi.org/10.1002/jcc.26942
  5. Lehtola,S.; Steigemann,C.; Oliveira,M.; Marques,M.
     Recent developments in Libxc - A comprehensive library of functionals for density functional theory
     Software X, 2018 7 
     doi.org/10.1016/j.softx.2017.11.002

List of suggested additional citations. These are papers that are important in the 'surrounding' of 
of this run, or papers that preceded the highly important papers. If you like your results we are grateful for a citation.

  1. Izsak,R.; Neese,F.
     An overlap fitted chain of spheres exchange method
     J. Chem. Phys., 2011 135 144105
     doi.org/10.1063/1.3646921
  2. Izsak,R.; Hansen,A.; Neese,F.
     The resolution of identity and chain of spheres approximations for the LPNO-CCSD singles Fock term
     Molec. Phys., 2012 110 2413-2417
     doi.org/10.1080/00268976.2012.687466
  3. Neese,F.
     The ORCA program system
     WIRES Comput. Molec. Sci., 2012 2(1)73-78
     doi.org/10.1002/wcms.81
  4. Izsak,R.; Neese,F.; Klopper,W.
     Robust fitting techniques in the chain of spheres approximation to the Fock exchange: The role of the complementary space
     J. Chem. Phys., 2013 139 
     doi.org/10.1063/1.4819264
  5. Neese,F.
     Software update: the ORCA program system, version 4.0
     WIRES Comput. Molec. Sci., 2018 8(1)1-6
     doi.org/10.1002/wcms.1327
  6. Neese,F.; Wennmohs,F.; Becker,U.; Riplinger,C.
     The ORCA quantum chemistry program package
     J. Chem. Phys., 2020 152 Art. No. L224108
     doi.org/10.1063/5.0004608

Timings for individual modules:

Sum of individual times          ...        4.872 sec (=   0.081 min)
Startup calculation              ...        1.403 sec (=   0.023 min)  28.8 %
SCF iterations                   ...        2.157 sec (=   0.036 min)  44.3 %
Property integrals               ...        0.318 sec (=   0.005 min)   6.5 %
Property calculations            ...        0.311 sec (=   0.005 min)   6.4 %
SCF Gradient evaluation          ...        0.682 sec (=   0.011 min)  14.0 %
                             ****ORCA TERMINATED NORMALLY****
TOTAL RUN TIME: 0 days 0 hours 0 minutes 5 seconds 250 msec
