
                                 *****************
                                 * O   R   C   A *
                                 *****************

                                            #,                                       
                                            ###                                      
                                            ####                                     
                                            #####                                    
                                            ######                                   
                                           ########,                                 
                                     ,,################,,,,,                         
                               ,,#################################,,                 
                          ,,##########################################,,             
                       ,#########################################, ''#####,          
                    ,#############################################,,   '####,        
                  ,##################################################,,,,####,       
                ,###########''''           ''''###############################       
              ,#####''   ,,,,##########,,,,          '''####'''          '####       
            ,##' ,,,,###########################,,,                        '##       
           ' ,,###''''                  '''############,,,                           
         ,,##''                                '''############,,,,        ,,,,,,###''
      ,#''                                            '''#######################'''  
     '                                                          ''''####''''         
             ,#######,   #######,   ,#######,      ##                                
            ,#'     '#,  ##    ##  ,#'     '#,    #''#        ,####,   ,####,        
            ##       ##  ##   ,#'  ##            #'  '#       #'       #'  '#        
            ##       ##  #######   ##           ,######,      #####,   #    #        
            '#,     ,#'  ##    ##  '#,     ,#' ,#      #,     #,   #   #,  ,#        
             '#######'   ##     ##  '#######'  #'      '#     '####' # '####'        



                #########################################################
                #                        -***-                          #
                #          Department of theory and spectroscopy        #
                #                                                       #
                #                      Frank Neese                      #
                #                                                       #
                #     Directorship, Architecture, Infrastructure        #
                #                    SHARK, DRIVERS                     #
                #        Core code/Algorithms in most modules           #
                #                                                       #
                #        Max Planck Institute fuer Kohlenforschung      #
                #                Kaiser Wilhelm Platz 1                 #
                #                 D-45470 Muelheim/Ruhr                 #
                #                      Germany                          #
                #                                                       #
                #                  All rights reserved                  #
                #                        -***-                          #
                #########################################################


                         Program Version 6.0.0-f.0  -   RELEASE   -


 With contributions from (in alphabetic order):
   Daniel Aravena         : Magnetic Suceptibility
   Michael Atanasov       : Ab Initio Ligand Field Theory (pilot matlab implementation)
   Alexander A. Auer      : GIAO ZORA, VPT2 properties, NMR spectrum
   Ute Becker             : All parallelization in ORCA, NUMFREQ, NUMCALC
   Giovanni Bistoni       : ED, misc. LED, open-shell LED, HFLD
   Martin Brehm           : Molecular dynamics
   Dmytro Bykov           : pre 5.0 version of the SCF Hessian
   Marcos Casanova-Páez   : Triplet and SCS-CIS(D). UHF-(DLPNO)-IP/EA/STEOM-CCSD. UHF-CVS-IP/STEOM-CCSD
   Pauline Colinet        : FMM embedding
   Vijay G. Chilkuri      : MRCI spin determinant printing, contributions to CSF-ICE
   Dipayan Datta          : RHF DLPNO-CCSD density
   Achintya Kumar Dutta   : EOM-CC, STEOM-CC
   Nicolas Foglia         : Exact transition moments, OPA infrastructure, MCD improvements
   Dmitry Ganyushin       : Spin-Orbit,Spin-Spin,Magnetic field MRCI
   Miquel Garcia          : C-PCM and meta-GGA Hessian, CCSD/C-PCM, Gaussian charge scheme
   Tiago L. C. Gouveia    : GS-ROHF, GS-ROCIS
   Yang Guo               : DLPNO-NEVPT2, F12-NEVPT2, CIM, IAO-localization
   Andreas Hansen         : Spin unrestricted coupled pair/coupled cluster methods
   Ingolf Harden          : AutoCI MPn and infrastructure 
   Benjamin Helmich-Paris : MC-RPA, TRAH-(SCF,CASSCF), AVAS, COSX integrals, SCF dyn. polar.
   Lee Huntington         : MR-EOM, pCC
   Robert Izsak           : Overlap fitted RIJCOSX, COSX-SCS-MP3, EOM
   Christian Kollmar      : KDIIS, OOCD, Brueckner-CCSD(T), CCSD density, CASPT2, CASPT2-K, improved NEVPT2
   Axel Koslowski         : Symmetry handling, petite lists
   Simone Kossmann        : Meta GGA functionals, TD-DFT gradient, OOMP2, (MP2 Hessian; deprecated post 5.0)
   Lucas Lang             : DCDCAS
   Marvin Lechner         : AUTO-CI (C++ implementation), FIC-MRCC
   Dagmar Lenk            : GEPOL surface, SMD, ORCA-2-JSON
   Dimitrios Liakos       : Extrapolation schemes; Compound Job, initial MDCI parallelization
   Dimitrios Manganas     : Further ROCIS development; embedding schemes. LFT, Crystal Embedding
   Dimitrios Pantazis     : SARC Basis sets
   Anastasios Papadopoulos: AUTO-CI, single reference methods and gradients
   Taras Petrenko         : pre 6.0 DFT Hessian and TD-DFT gradient, (ASA, deprecated), ECA, 1-Electron XAS/XES, NRVS
   Peter Pinski           : DLPNO-MP2, DLPNO-MP2 Gradient
   Christoph Reimann      : Effective Core Potentials
   Marius Retegan         : Local ZFS, SOC
   Christoph Riplinger    : Optimizer, TS searches, QM/MM, DLPNO-CCSD(T), (RO)-DLPNO pert. Triples
   Michael Roemelt        : Original ROCIS implementation
   Masaaki Saitow         : Open-shell DLPNO-CCSD energy and density
   Barbara Sandhoefer     : DKH picture change effects
   Kantharuban Sivalingam : CASSCF convergence/infrastructure, NEVPT2 and variants, FIC-MRCI
   Bernardo de Souza      : ESD, SOC TD-DFT
   Georgi Stoychev        : AutoAux, RI-MP2 NMR, DLPNO-MP2 response, X2C
   Van Anh Tran           : RI-MP2 g-tensors
   Zikuan Wang            : NOTCH, Electric field optimization 
   Willem Van den Heuvel  : Paramagnetic NMR
   Frank Wennmohs         : Technical directorship and infrastructure
   Hang Xu                : AutoCI-Response properties 


 We gratefully acknowledge several colleagues who have allowed us to
 interface, adapt or use parts of their codes:
   Stefan Grimme, W. Hujo, H. Kruse, P. Pracht,  : VdW corrections, initial TS optimization,
                  C. Bannwarth, S. Ehlert,         DFT functionals, gCP, sTDA/sTD-DF
                  L. Wittmann, M. Mueller
   Ed Valeev, F. Pavosevic, A. Kumar             : LibInt (2-el integral package), F12 methods
   Garnet Chan, S. Sharma, J. Yang, R. Olivares  : DMRG
   Ulf Ekstrom                                   : XCFun DFT Library
   Mihaly Kallay                                 : mrcc  (arbitrary order and MRCC methods)
   Frank Weinhold                                : gennbo (NPA and NBO analysis)
   Simon Mueller                                 : openCOSMO-RS
   Christopher J. Cramer and Donald G. Truhlar   : smd solvation model
   Lars Goerigk                                  : TD-DFT with DH, B97 family of functionals
   V. Asgeirsson, H. Jonsson                     : NEB implementation
   FAccTs GmbH                                   : IRC, NEB, NEB-TS, DLPNO-Multilevel, CI-OPT
                                                   MM, QMMM, 2- and 3-layer-ONIOM, Crystal-QMMM,
                                                   LR-CPCM, SF, NACMEs, symmetry and pop. for TD-DFT,
                                                   nearIR, NL-DFT gradient (VV10), updates on ESD,
                                                   ML-optimized integration grids
                                                   GOAT, DOCKER, SOLVATOR
   S Lehtola, MJT Oliveira, MAL Marques          : LibXC Library
   Liviu Ungur et al                             : ANISO software


 Your calculation uses the libint2 library for the computation of 2-el integrals
 For citations please refer to: http://libint.valeyev.net

 Your ORCA version has been built with support for libXC version: 6.2.2
 For citations please refer to: https://libxc.gitlab.io

 This ORCA versions uses:
   CBLAS   interface :  Fast vector & matrix operations
   LAPACKE interface :  Fast linear algebra routines
   SCALAPACK package :  Parallel linear algebra routines
   Shared memory     :  Shared parallel matrices
   BLAS/LAPACK       :  OpenBLAS 0.3.27  USE64BITINT DYNAMIC_ARCH NO_AFFINITY Cooperlake SINGLE_THREADED
        Core in use  :  Cooperlake
   Copyright (c) 2011-2014, The OpenBLAS Project


Reading of a custom orbital basis requested
Basis file: def2-tzvpd.bas
Basis read successfully!

NOTE: MaxCore=2035 MB was set to SCF,MP2,MDCI,CIPSI,MRCI and CIS
      => If you want to overwrite this, your respective input block should be placed after the MaxCore statement
Your calculation utilizes the DFT-NL dispersion correction.
Cite in your paper:
Vydrov, O. A.; Van Voorhis, T. J. Chem. Phys. 2010, 133, 244103
Hujo, W.; Grimme, S. J. Chem. Theory Comput. 2011, 7, 3866 
   

================================================================================

----- Orbital basis set information -----
Basis read from file: def2-tzvpd.bas

----- AuxJ basis set information -----
Your calculation utilizes the auxiliary basis: def2/J
   F. Weigend, Phys. Chem. Chem. Phys. 8, 1057 (2006).

================================================================================
                                        WARNINGS
                       Please study these warnings very carefully!
================================================================================

Using LibXC functional ID 531 : wB97M-V exchange-correlation functional
[ 1]  N. Mardirossian and M. Head-Gordon.,  J. Chem. Phys. 144, 214110 (2016)
Using LibXC functional ID 531 : wB97M-V exchange-correlation functional
[ 1]  N. Mardirossian and M. Head-Gordon.,  J. Chem. Phys. 144, 214110 (2016)

WARNING: B97M-V or wB97M-V functional requested.
  ===> : libXC variant has now been activated.
         Any manually given DFX/HFX/RangeSep scaling parameters are IGNORED!

Your calculation utilizes LibXC
 by S Lehtola, C Steigemann, MJT Oliveira & MAL Marques
Please cite in your paper:
 S Lehtola, C Steigemann, MJT Oliveira & MAL Marques, SoftwareX, 7, (2018), 1.
   


WARNING: Analytic gradients for DFT-NL dispersion can only be done using the self-consistent method,
  ===>   Switching to SCNL

WARNING: Self-consistent DFT-NL dispersion not compatible with AutoTRAH.
  ===>   Switching AutoTRAH off


================================================================================
                                       INPUT FILE
================================================================================
NAME = /tmp/tmp_foczt3q/orca.inp
|  1> ! wB97M-V def2-TZVPD EnGrad RIJCOSX def2/J NoUseSym DIIS NOSOSCF NormalConv DEFGRID3 ALLPOP 
|  2> %scf Convergence Tight maxiter 300 end %elprop Dipole true Quadrupole true end %output Print[P_ReducedOrbPopMO_L] 1 Print[P_ReducedOrbPopMO_M] 1 Print[P_BondOrder_L] 1 Print[P_BondOrder_M] 1 Print[P_Fockian] 1 Print[P_OrbEn] 2 end %basis GTOName "def2-tzvpd.bas" end %scf THRESH 1e-12 TCUT 1e-13 end %maxcore 2035.1999998092651 %nbo NBOKEYLIST = "$NBO NPA NBO E2PERT 0.1 $END" end 
|  3> *xyz 2 1 
|  4> Na   0.0 0.0 0.0
|  5> Li   0.0 0.0 6.799997329711914
|  6> *
|  7> %pal nprocs 20 endd                         ****END OF INPUT****
================================================================================

                     *******************************
                     * Energy+Gradient Calculation *
                     *******************************

---------------------------------
CARTESIAN COORDINATES (ANGSTROEM)
---------------------------------
  Na     0.000000    0.000000    0.000000
  Li     0.000000    0.000000    6.799997

----------------------------
CARTESIAN COORDINATES (A.U.)
----------------------------
  NO LB      ZA    FRAG     MASS         X           Y           Z
   0 Na   11.0000    0    22.990    0.000000    0.000000    0.000000
   1 Li    3.0000    0     6.941    0.000000    0.000000   12.850133

--------------------------------
INTERNAL COORDINATES (ANGSTROEM)
--------------------------------
 Na     0   0   0     0.000000000000     0.00000000     0.00000000
 Li     1   0   0     6.799997329712     0.00000000     0.00000000

---------------------------
INTERNAL COORDINATES (A.U.)
---------------------------
 Na     0   0   0     0.000000000000     0.00000000     0.00000000
 Li     1   0   0    12.850132664551     0.00000000     0.00000000

---------------------
BASIS SET INFORMATION
---------------------
There are 2 groups of distinct atoms

 Group   1 Type Na  : 14s9p3d contracted to 5s5p3d pattern {73211/51111/111}
 Group   2 Type Li  : 11s4p contracted to 5s4p pattern {62111/1111}

Atom   0Na   basis set group =>   1
Atom   1Li   basis set group =>   2
---------------------------------
AUXILIARY/J BASIS SET INFORMATION
---------------------------------
There are 2 groups of distinct atoms

 Group   1 Type Na  : 14s5p5d2f1g contracted to 8s4p4d1f1g pattern {71111111/2111/2111/2/1}
 Group   2 Type Li  : 12s5p4d2f1g contracted to 6s4p3d1f1g pattern {711111/2111/211/2/1}

Atom   0Na   basis set group =>   1
Atom   1Li   basis set group =>   2


           ************************************************************
           *        Program running with 20 parallel MPI-processes    *
           *              working on a common directory               *
           ************************************************************
------------------------------------------------------------------------------
                             ORCA STARTUP CALCULATIONS
                           -- RI-GTO INTEGRALS CHOSEN --
------------------------------------------------------------------------------
------------------------------------------------------------------------------
                   ___                                                        
                  /   \      - P O W E R E D   B Y -                         
                 /     \                                                     
                 |  |  |   _    _      __       _____    __    __             
                 |  |  |  | |  | |    /  \     |  _  \  |  |  /  |          
                  \  \/   | |  | |   /    \    | | | |  |  | /  /          
                 / \  \   | |__| |  /  /\  \   | |_| |  |  |/  /          
                |  |  |   |  __  | /  /__\  \  |    /   |      \           
                |  |  |   | |  | | |   __   |  |    \   |  |\   \          
                \     /   | |  | | |  |  |  |  | |\  \  |  | \   \       
                 \___/    |_|  |_| |__|  |__|  |_| \__\ |__|  \__/        
                                                                              
                      - O R C A' S   B I G   F R I E N D -                    
                                      &                                       
                       - I N T E G R A L  F E E D E R -                       
                                                                              
 v1 FN, 2020, v2 2021, v3 2022-2024                                           
------------------------------------------------------------------------------


----------------------
SHARK INTEGRAL PACKAGE
----------------------

Number of atoms                             ...      2
Number of basis functions                   ...     52
Number of shells                            ...     22
Maximum angular momentum                    ...      2
Integral batch strategy                     ... SHARK/LIBINT Hybrid
RI-J (if used) integral strategy            ... SPLIT-RIJ (Revised 2003 algorithm where possible)
Printlevel                                  ...      1
Contraction scheme used                     ... SEGMENTED contraction
Prescreening option                         ... SCHWARTZ
   Thresh                                   ... 1.000e-12
   Tcut                                     ... 1.000e-13
   Tpresel                                  ... 1.000e-13 
Coulomb Range Separation                    ... NOT USED
Exchange Range Separation                   ... Long Range
   Mu parameter                             ... 3.000e-01
   Scaling (regular/separated)              ... 1.500e-01 8.500e-01
Multipole approximations                    ... NOT USED
Finite Nucleus Model                        ... NOT USED
CABS basis                                  ... NOT available
Auxiliary Coulomb fitting basis             ... AVAILABLE
   # of basis functions in Aux-J            ...    105
   # of shells in Aux-J                     ...     33
   Maximum angular momentum in Aux-J        ...      4
Auxiliary J/K fitting basis                 ... NOT available
Auxiliary Correlation fitting basis         ... NOT available
Auxiliary 'external' fitting basis          ... NOT available

Checking pre-screening integrals            ... done (  0.0 sec) Dimension = 22
Check shell pair data                       ... done (  0.0 sec)
Shell pair information
Shell pair cut-off parameter TPreSel        ...   1.0e-13
Total number of shell pairs                 ...       253
Shell pairs after pre-screening             ...       220
Total number of primitive shell pairs       ...       912
Primitive shell pairs kept                  ...       692
          la=0 lb=0:     46 shell pairs
          la=1 lb=0:     78 shell pairs
          la=1 lb=1:     42 shell pairs
          la=2 lb=0:     24 shell pairs
          la=2 lb=1:     24 shell pairs
          la=2 lb=2:      6 shell pairs

Calculating one electron integrals          ... done (  0.0 sec)
Calculating RI/J V-Matrix + Cholesky decomp.... done (  0.0 sec)
Calculating Nuclear repulsion               ... done (  0.0 sec) ENN=      2.568066872262 Eh

Diagonalization of the overlap matrix:
Smallest eigenvalue                        ... 5.277e-02
Time for diagonalization                   ...    0.001 sec
Threshold for overlap eigenvalues          ... 1.000e-07
Number of eigenvalues below threshold      ... 0
Time for construction of square roots      ...    0.000 sec
Total time needed                          ...    0.002 sec

-------------------
DFT GRID GENERATION
-------------------

General Integration Accuracy     IntAcc      ... 4.959
Radial Grid Type                 RadialGrid  ... OptM3 with GC (2021)
Angular Grid (max. ang.)         AngularGrid ... 6 (Lebedev-590)
Angular grid pruning method      GridPruning ... 4 (adaptive)
Weight generation scheme         WeightScheme... mBecke (2022)
Basis function cutoff            BFCut       ... 1.0000e-11
Integration weight cutoff        WCut        ... 1.0000e-14
Partially contracted basis set               ... off
Rotationally invariant grid construction     ... off
Angular grids for H and He will be reduced by one unit

Total number of grid points                  ...    30880
Total number of batches                      ...      484
Average number of points per batch           ...       63
Average number of grid points per atom       ...    15440

------------------
NL GRID GENERATION
------------------

General Integration Accuracy     IntAcc      ... 4.159
Radial Grid Type                 RadialGrid  ... OptM3 with GC (2021)
Angular Grid (max. ang.)         AngularGrid ... 3 (Lebedev-194)
Angular grid pruning method      GridPruning ... 4 (adaptive)
Weight generation scheme         WeightScheme... mBecke (2022)
Basis function cutoff            BFCut       ... 1.0000e-10
Integration weight cutoff        WCut        ... 1.0000e-14
Partially contracted basis set               ... off
Rotationally invariant grid construction     ... off
Angular grids for H and He will be reduced by one unit

Total number of grid points                  ...     7602
Total number of batches                      ...      119
Average number of points per batch           ...       63
Average number of grid points per atom       ...     3801

--------------------
COSX GRID GENERATION
--------------------

GRIDX 1
-------
General Integration Accuracy     IntAcc      ... 4.020
Radial Grid Type                 RadialGrid  ... OptM3 with GC (2021)
Angular Grid (max. ang.)         AngularGrid ... 2 (Lebedev-110)
Angular grid pruning method      GridPruning ... 4 (adaptive)
Weight generation scheme         WeightScheme... mBecke (2022)
Basis function cutoff            BFCut       ... 1.0000e-11
Integration weight cutoff        WCut        ... 1.0000e-14
Partially contracted basis set               ... on
Rotationally invariant grid construction     ... off
Angular grids for H and He will be reduced by one unit

Total number of grid points                  ...     3859
Total number of batches                      ...       31
Average number of points per batch           ...      124
Average number of grid points per atom       ...     1930
UseSFitting                                  ... on

GRIDX 2
-------
General Integration Accuracy     IntAcc      ... 4.338
Radial Grid Type                 RadialGrid  ... OptM3 with GC (2021)
Angular Grid (max. ang.)         AngularGrid ... 3 (Lebedev-194)
Angular grid pruning method      GridPruning ... 4 (adaptive)
Weight generation scheme         WeightScheme... mBecke (2022)
Basis function cutoff            BFCut       ... 1.0000e-11
Integration weight cutoff        WCut        ... 1.0000e-14
Partially contracted basis set               ... on
Rotationally invariant grid construction     ... off
Angular grids for H and He will be reduced by one unit

Total number of grid points                  ...     9241
Total number of batches                      ...       73
Average number of points per batch           ...      126
Average number of grid points per atom       ...     4620
UseSFitting                                  ... on

GRIDX 3
-------
General Integration Accuracy     IntAcc      ... 4.871
Radial Grid Type                 RadialGrid  ... OptM3 with GC (2021)
Angular Grid (max. ang.)         AngularGrid ... 4 (Lebedev-302)
Angular grid pruning method      GridPruning ... 4 (adaptive)
Weight generation scheme         WeightScheme... mBecke (2022)
Basis function cutoff            BFCut       ... 1.0000e-11
Integration weight cutoff        WCut        ... 1.0000e-14
Partially contracted basis set               ... on
Rotationally invariant grid construction     ... off
Angular grids for H and He will be reduced by one unit

Total number of grid points                  ...    16109
Total number of batches                      ...      126
Average number of points per batch           ...      127
Average number of grid points per atom       ...     8054
UseSFitting                                  ... on
Initializing property integral containers    ... done (  0.0 sec)

SHARK setup successfully completed in   1.1 seconds

Maximum memory used throughout the entire STARTUP-calculation: 11.3 MB


           ************************************************************
           *        Program running with 20 parallel MPI-processes    *
           *              working on a common directory               *
           ************************************************************
-------------------------------------------------------------------------------
                                 ORCA GUESS
                   Start orbitals & Density for SCF / CASSCF
-------------------------------------------------------------------------------

------------
SCF SETTINGS
------------
Hamiltonian:
 Density Functional     Method          .... DFT(GTOs)
  Functional kind                       .... Exchange-Correlation
  Functional name                       .... wB97M-V exchange-correlation functional
  Functional family                     .... Hybrid MGGA
  Functional refs                              
    [ 0] N. Mardirossian and M. Head-Gordon.,  J. Chem. Phys. 144, 214110 (2016), doi: 10.1063/1.4952647
  Fraction of HF Exchange (short range) .... 0.1500
  Fraction of HF Exchange (long range)  .... 1.0000
  Range separation parameter mu         .... 0.3000
  Functional external parameters        .... 17
    Parameter  0 _cx00      =  8.500000e-01 : u^00 coefficient for exchange
    Parameter  1 _cx01      =  1.007000e+00 : u^01 coefficient for exchange
    Parameter  2 _cx10      =  2.590000e-01 : u^10 coefficient for exchange
    Parameter  3 _css00     =  4.430000e-01 : u^00 coefficient for same-spin correlation
    Parameter  4 _css04     = -1.437000e+00 : u^04 coefficient for same-spin correlation
    Parameter  5 _css10     = -4.535000e+00 : u^10 coefficient for same-spin correlation
    Parameter  6 _css20     = -3.390000e+00 : u^20 coefficient for same-spin correlation
    Parameter  7 _css43     =  4.278000e+00 : u^43 coefficient for same-spin correlation
    Parameter  8 _cos00     =  1.000000e+00 : u^00 coefficient for opposite-spin correlation
    Parameter  9 _cos10     =  1.358000e+00 : u^10 coefficient for opposite-spin correlation
    Parameter 10 _cos20     =  2.924000e+00 : u^20 coefficient for opposite-spin correlation
    Parameter 11 _cos21     = -8.812000e+00 : u^21 coefficient for opposite-spin correlation
    Parameter 12 _cos60     = -1.390000e+00 : u^60 coefficient for opposite-spin correlation
    Parameter 13 _cos61     =  9.142000e+00 : u^61 coefficient for opposite-spin correlation
    Parameter 14 _alpha     =  1.000000e+00 : fraction of HF exchange
    Parameter 15 _beta      = -8.500000e-01 : fraction of short-range exchange
    Parameter 16 _omega     =  3.000000e-01 : range-separation constant
 Long-range corrected/Screened/Range-Separated Hybrid DFT is turned on
   Amount of maximum screened exact exchange              ....  0.850000
   Range separation parameter mu (erf(mu*r12)/r12)        ....  0.300000
   NL short-range parameter             ....  6.000000
   NL long-range parameter              ....  0.010000
 RI-approximation to the Coulomb term is turned on
   Number of AuxJ basis functions       .... 105
   RIJ-COSX (HFX calculated with COS-X)).... on


General Settings:
 Integral files         IntName         .... /tmp/tmp_foczt3q/orca
 Hartree-Fock type      HFTyp           .... RHF
 Total Charge           Charge          ....    2
 Multiplicity           Mult            ....    1
 Number of Electrons    NEL             ....   12
 Basis Dimension        Dim             ....   52
 Nuclear Repulsion      ENuc            ....      2.5680668723 Eh

Convergence Acceleration:
 AO-DIIS                CNVDIIS         .... on
   Start iteration      DIISMaxIt       ....    12
   Startup error        DIISStart       ....  0.200000
   # of expansion vecs  DIISMaxEq       ....     5
   Bias factor          DIISBfac        ....   1.050
   Max. coefficient     DIISMaxC        ....  10.000
 MO-DIIS                CNVKDIIS        .... off
 Trust-Rad. Augm. Hess. CNVTRAH         .... off
 SOSCF                  CNVSOSCF        .... off
 Level Shifting         CNVShift        .... on
   Level shift para.    LevelShift      ....    0.2500
   Turn off err/grad.   ShiftErr        ....    0.0010
 Zerner damping         CNVZerner       .... off
 Static damping         CNVDamp         .... on
   Fraction old density DampFac         ....    0.7000
   Max. Damping (<1)    DampMax         ....    0.9800
   Min. Damping (>=0)   DampMin         ....    0.0000
   Turn off err/grad.   DampErr         ....    0.1000

SCF Procedure:
 Maximum # iterations   MaxIter         ....   300
 SCF integral mode      SCFMode         .... Direct
   Integral package                     .... SHARK and LIBINT hybrid scheme
 Reset frequency        DirectResetFreq ....    20
 Integral Threshold     Thresh          ....  1.000e-12 Eh
 Primitive CutOff       TCut            ....  1.000e-13 Eh

Convergence Tolerance:
 Convergence Check Mode ConvCheckMode   .... Total+1el-Energy
 Convergence forced     ConvForced      .... 0
 Energy Change          TolE            ....  1.000e-08 Eh
 1-El. energy change                    ....  1.000e-05 Eh
 DIIS Error             TolErr          ....  5.000e-07

------------------------------
INITIAL GUESS: MODEL POTENTIAL
------------------------------
Loading Hartree-Fock densities                     ... done
Calculating cut-offs                               ... done
Initializing the effective Hamiltonian             ... done
Setting up the integral package (SHARK)            ... done
Starting the Coulomb interaction                   ... done (   0.0 sec)
Making the grid                                    ... done (   0.0 sec)
Mapping shells                                     ... done
Starting the XC term evaluation                    ... done (   0.0 sec)
  promolecular density results
     # of electrons  =     14.000136467
     EX              =    -15.679376688
     EC              =     -0.434200699
     EX+EC           =    -16.113577387
Transforming the Hamiltonian                       ... done (   0.0 sec)
Diagonalizing the Hamiltonian                      ... done (   0.0 sec)
Back transforming the eigenvectors                 ... done (   0.0 sec)
Now organizing SCF variables                       ... done
                      ------------------
                      INITIAL GUESS DONE (   0.0 sec)
                      ------------------
             **** ENERGY FILE WAS UPDATED (/tmp/tmp_foczt3q/orca.en.tmp) ****
Finished Guess after   0.2 sec
Maximum memory used throughout the entire GUESS-calculation: 5.6 MB


           ************************************************************
           *        Program running with 20 parallel MPI-processes    *
           *              working on a common directory               *
           ************************************************************

-------------------------------------------------------------------------------------------
                                      ORCA LEAN-SCF
                              memory conserving SCF solver
-------------------------------------------------------------------------------------------

----------------------------------------D-I-I-S--------------------------------------------
Iteration    Energy (Eh)           Delta-E    RMSDP     MaxDP     DIISErr   Damp  Time(sec)
-------------------------------------------------------------------------------------------
               ***  Starting incremental Fock matrix formation  ***
    1    -169.2630693644655366     0.00e+00  7.23e-04  9.85e-03  5.27e-02  0.700   0.2
    2    -169.2643806624508898    -1.31e-03  4.93e-04  7.07e-03  3.61e-02  0.700   0.2
                               ***Turning on AO-DIIS***
    3    -169.2651561690961728    -7.76e-04  2.66e-04  5.05e-03  2.37e-02  0.700   0.2
    4    -169.2656508090300918    -4.95e-04  6.30e-04  1.19e-02  1.63e-02  0.000   0.2
    5    -169.2667712337701289    -1.12e-03  3.92e-05  5.75e-04  1.30e-03  0.000   0.2
    6    -169.2667727640633757    -1.53e-06  6.26e-06  7.63e-05  9.43e-05  0.000   0.2
               *** Restarting incremental Fock matrix formation ***
                             ****Resetting DIIS****
    7    -169.2667727895793064    -2.55e-08  1.32e-06  1.89e-05  3.57e-05  0.000   0.2
    8    -169.2667727908288384    -1.25e-09  6.10e-07  9.40e-06  1.64e-05  0.000   0.2
                 **** Energy Check signals convergence ****

               *****************************************************
               *                     SUCCESS                       *
               *           SCF CONVERGED AFTER   8 CYCLES          *
               *****************************************************

Recomputing exchange energy using gridx3       ... done (    0.102 sec)
Old exchange energy                            :     -4.013715368 Eh
New exchange energy                            :     -4.013715550 Eh
Exchange energy change after final integration :     -0.000000182 Eh
Total energy after final integration           :   -169.266772972 Eh
             **** ENERGY FILE WAS UPDATED (/tmp/tmp_foczt3q/orca.en.tmp) ****

----------------
TOTAL SCF ENERGY
----------------

Total Energy       :       -169.26677297235713 Eh           -4605.98306 eV

Components:
Nuclear Repulsion  :          2.56806687226153 Eh              69.88065 eV
Electronic Energy  :       -171.88917777458673 Eh           -4677.34232 eV
One Electron Energy:       -237.63529423078026 Eh           -6466.38510 eV
Two Electron Energy:         65.74611645619353 Eh            1789.04278 eV

Virial components:
Potential Energy   :       -337.92963672549297 Eh           -9195.53291 eV
Kinetic Energy     :        168.66286375313581 Eh            4589.54985 eV
Virial Ratio       :          2.00358057017285

DFT components:
N(Alpha)           :        6.000000190053 electrons
N(Beta)            :        6.000000190053 electrons
N(Total)           :       12.000000380106 electrons
NL Energy, E(C,NL) :        0.054338111496 Eh       
E(XC)              :      -11.943027706836 Eh       

---------------
SCF CONVERGENCE
---------------

  Last Energy change         ...    1.2495e-09  Tolerance :   1.0000e-08
  Last MAX-Density change    ...    9.4026e-06  Tolerance :   1.0000e-07
  Last RMS-Density change    ...    6.1005e-07  Tolerance :   5.0000e-09
  Last DIIS Error            ...    1.6398e-05  Tolerance :   5.0000e-07


----------------
ORBITAL ENERGIES
----------------

  NO   OCC          E(Eh)            E(eV) 
   0   2.0000     -39.089056     -1063.6673 
   1   2.0000      -2.728776       -74.2538 
   2   2.0000      -2.549012       -69.3621 
   3   2.0000      -1.630408       -44.3657 
   4   2.0000      -1.630189       -44.3597 
   5   2.0000      -1.630189       -44.3597 
   6   0.0000      -0.302607        -8.2344 
   7   0.0000      -0.292334        -7.9548 
   8   0.0000      -0.225948        -6.1484 
   9   0.0000      -0.218444        -5.9442 
  10   0.0000      -0.218444        -5.9442 
  11   0.0000      -0.200254        -5.4492 
  12   0.0000      -0.200254        -5.4492 
  13   0.0000      -0.198482        -5.4010 
  14   0.0000      -0.140707        -3.8288 
  15   0.0000      -0.120327        -3.2743 
  16   0.0000      -0.120327        -3.2743 
  17   0.0000      -0.114079        -3.1042 
  18   0.0000      -0.102869        -2.7992 
  19   0.0000      -0.102869        -2.7992 
  20   0.0000      -0.102132        -2.7791 
  21   0.0000      -0.091290        -2.4841 
  22   0.0000      -0.028732        -0.7818 
  23   0.0000      -0.028732        -0.7818 
  24   0.0000      -0.027936        -0.7602 
  25   0.0000      -0.027933        -0.7601 
  26   0.0000      -0.017986        -0.4894 
  27   0.0000      -0.013396        -0.3645 
  28   0.0000      -0.009529        -0.2593 
  29   0.0000      -0.009529        -0.2593 
  30   0.0000       0.272019         7.4020 
  31   0.0000       0.272019         7.4020 
  32   0.0000       0.274530         7.4703 
  33   0.0000       0.790652        21.5147 
  34   0.0000       0.790652        21.5147 
  35   0.0000       0.791332        21.5332 
  36   0.0000       0.791332        21.5332 
  37   0.0000       0.793040        21.5797 
  38   0.0000       0.986156        26.8347 
  39   0.0000       0.986156        26.8347 
  40   0.0000       0.987259        26.8647 
  41   0.0000       1.133125        30.8339 
  42   0.0000       3.181599        86.5757 
  43   0.0000       5.437752       147.9688 
  44   0.0000       5.437752       147.9688 
  45   0.0000       5.437822       147.9707 
  46   0.0000       5.437822       147.9707 
  47   0.0000       5.438895       147.9999 
  48   0.0000       5.539414       150.7351 
  49   0.0000       5.539414       150.7351 
  50   0.0000       5.540754       150.7716 
  51   0.0000      13.895220       378.1082 
----
FOCK
----
                  0          1          2          3          4          5    
      0     -39.078117   8.719032  -9.437765  -1.245888  -0.611803  -0.000217
      1       8.719032  -3.756646   4.658049   1.007888   0.508759   0.001228
      2      -9.437765   4.658049  -4.648853  -1.081889  -0.559331  -0.001881
      3      -1.245888   1.007888  -1.081889  -0.548187  -0.382793  -0.000899
      4      -0.611803   0.508759  -0.559331  -0.382793  -0.324619  -0.000499
      5      -0.000217   0.001228  -0.001881  -0.000899  -0.000499  -1.539515
      6      -0.000000   0.000000  -0.000000  -0.000000  -0.000000   0.000000
      7      -0.000000   0.000000  -0.000000  -0.000000  -0.000000   0.000000
      8      -0.000027   0.000747  -0.002802  -0.003899  -0.002282  -1.170529
      9      -0.000000   0.000000  -0.000000  -0.000000  -0.000000   0.000000
     10      -0.000000   0.000000  -0.000000  -0.000000  -0.000000  -0.000000
     11      -0.000002   0.000063  -0.000381  -0.012492  -0.020649  -0.107989
     12      -0.000000  -0.000000  -0.000000  -0.000000  -0.000000   0.000000
     13       0.000000  -0.000000   0.000000  -0.000000  -0.000000   0.000000
     14      -0.000007   0.000204  -0.001157  -0.012001  -0.010913  -0.361543
     15      -0.000000   0.000000  -0.000000  -0.000000  -0.000000   0.000000
     16       0.000000   0.000000  -0.000000  -0.000000  -0.000000   0.000000
     17      -0.000001   0.000104  -0.000151  -0.000048  -0.000025  -0.001721
     18       0.000000   0.000000  -0.000000  -0.000000  -0.000000  -0.000000
     19       0.000000   0.000000  -0.000000  -0.000000  -0.000000  -0.000000
     20      -0.000000  -0.000000   0.000000  -0.000000  -0.000000   0.000000
     21      -0.000000   0.000000  -0.000000  -0.000000  -0.000000   0.000000
     22       0.000000   0.000051  -0.000276  -0.000729  -0.000449  -0.001375
     23      -0.000000   0.000000  -0.000000  -0.000000  -0.000000   0.000000
     24      -0.000000   0.000000  -0.000000  -0.000000  -0.000000  -0.000000
     25       0.000000  -0.000000   0.000000   0.000000  -0.000000   0.000000
     26       0.000000  -0.000000   0.000000   0.000000   0.000000   0.000000
     27       0.000000   0.000012  -0.000091  -0.003336  -0.003645  -0.000342
     28      -0.000000   0.000000  -0.000000   0.000000   0.000000   0.000000
     29      -0.000000  -0.000000  -0.000000   0.000000  -0.000000   0.000000
     30       0.000000  -0.000000   0.000000  -0.000000  -0.000000   0.000000
     31       0.000000   0.000000   0.000000  -0.000000   0.000000  -0.000000
     32      -0.000001   0.000020  -0.000121  -0.007089  -0.019925  -0.033027
     33      -0.000000  -0.000000  -0.000000  -0.000000  -0.000000   0.000000
     34      -0.000000  -0.000000  -0.000000  -0.000000  -0.000000   0.000000
     35       0.000000   0.000000   0.000000  -0.000161  -0.010966   0.000000
     36       0.000000   0.000001   0.000000  -0.000232  -0.013089   0.000000
     37       0.000000   0.000000   0.000001  -0.000380  -0.014492  -0.000000
     38      -0.000006   0.000008  -0.000017  -0.003533  -0.025641  -0.000011
     39      -0.007045   0.006324  -0.007498  -0.018873  -0.046597  -0.002282
     40      -0.000000   0.000000  -0.000000   0.000588   0.006363   0.000001
     41      -0.000000   0.000000  -0.000000   0.000000  -0.000000  -0.000000
     42      -0.000000   0.000000  -0.000000  -0.000000  -0.000000  -0.000000
     43       0.000466  -0.000521   0.000780   0.013367   0.033931   0.000425
     44       0.000000   0.000000  -0.000000   0.000000   0.000000  -0.000000
     45      -0.000000  -0.000000   0.000000  -0.000000  -0.000000   0.000000
     46      -0.000000   0.000000  -0.000000   0.000066   0.001495  -0.000000
     47      -0.000000   0.000000  -0.000000   0.000000  -0.000000  -0.000000
     48      -0.000000   0.000000   0.000000   0.000000   0.000000  -0.000000
     49       0.083578  -0.071463   0.080699   0.087357   0.103614   0.014637
     50       0.000000  -0.000000  -0.000000  -0.000000   0.000000  -0.000000
     51       0.000000  -0.000000   0.000000  -0.000000  -0.000000  -0.000000
                  6          7          8          9         10         11    
      0      -0.000000  -0.000000  -0.000027  -0.000000  -0.000000  -0.000002
      1       0.000000   0.000000   0.000747   0.000000   0.000000   0.000063
      2      -0.000000  -0.000000  -0.002802  -0.000000  -0.000000  -0.000381
      3      -0.000000  -0.000000  -0.003899  -0.000000  -0.000000  -0.012492
      4      -0.000000  -0.000000  -0.002282  -0.000000  -0.000000  -0.020649
      5       0.000000   0.000000  -1.170529   0.000000  -0.000000  -0.107989
      6      -1.539404   0.000000  -0.000000  -1.170316  -0.000000  -0.000000
      7       0.000000  -1.539404  -0.000000  -0.000000  -1.170316  -0.000000
      8      -0.000000  -0.000000  -0.388367   0.000000  -0.000000  -0.130373
      9      -1.170316  -0.000000   0.000000  -0.387470  -0.000000   0.000000
     10      -0.000000  -1.170316  -0.000000  -0.000000  -0.387470  -0.000000
     11      -0.000000  -0.000000  -0.130373   0.000000  -0.000000  -0.207664
     12      -0.107951   0.000000   0.000000  -0.130078   0.000000  -0.000000
     13       0.000000  -0.107951   0.000000   0.000000  -0.130078  -0.000000
     14      -0.000000   0.000000  -0.301733  -0.000000   0.000000  -0.188742
     15      -0.361442  -0.000000   0.000000  -0.300983   0.000000  -0.000000
     16      -0.000000  -0.361442   0.000000   0.000000  -0.300983  -0.000000
     17      -0.000000   0.000000  -0.001277  -0.000000   0.000000  -0.000090
     18      -0.001477   0.000000  -0.000000  -0.001093   0.000000   0.000000
     19       0.000000  -0.001477  -0.000000   0.000000  -0.001093   0.000000
     20      -0.000000   0.000000   0.000000  -0.000000   0.000000  -0.000000
     21      -0.000000  -0.000000   0.000000  -0.000000  -0.000000   0.000000
     22      -0.000000   0.000000  -0.005212  -0.000000   0.000000  -0.001684
     23      -0.001169  -0.000000  -0.000000  -0.004383  -0.000000   0.000000
     24      -0.000000  -0.001169  -0.000000  -0.000000  -0.004383   0.000000
     25      -0.000000   0.000000   0.000000  -0.000000   0.000000  -0.000000
     26       0.000000   0.000000   0.000000  -0.000000  -0.000000   0.000000
     27       0.000000  -0.000000  -0.002382   0.000000  -0.000000  -0.012264
     28      -0.000287  -0.000000  -0.000000  -0.001968  -0.000000   0.000000
     29      -0.000000  -0.000287   0.000000  -0.000000  -0.001968   0.000000
     30      -0.000000   0.000000  -0.000000  -0.000000   0.000000   0.000000
     31       0.000000  -0.000000  -0.000000   0.000000  -0.000000   0.000000
     32      -0.000000  -0.000000  -0.045278   0.000000  -0.000000  -0.153841
     33      -0.033012   0.000000   0.000000  -0.045177  -0.000000  -0.000000
     34       0.000000  -0.033012   0.000000  -0.000000  -0.045177  -0.000000
     35       0.000000  -0.000000   0.000000   0.000000   0.000000  -0.011771
     36      -0.000000   0.000000   0.000000   0.000000   0.000000  -0.014422
     37      -0.000000  -0.000000  -0.000000   0.000000  -0.000000  -0.016802
     38      -0.000000  -0.000000  -0.000059   0.000000  -0.000000  -0.035011
     39      -0.000000   0.000000  -0.003958   0.000000   0.000000  -0.059343
     40       0.000000   0.000000   0.000001   0.000000   0.000000   0.010343
     41      -0.000000  -0.000000  -0.000000  -0.000000  -0.000000  -0.000000
     42      -0.000000  -0.000000  -0.000000  -0.000000  -0.000000  -0.000000
     43       0.000000  -0.000000   0.001273   0.000000   0.000000   0.053149
     44      -0.000024  -0.000000  -0.000000  -0.000083  -0.000000   0.000000
     45      -0.000000  -0.000024   0.000000  -0.000000  -0.000083  -0.000000
     46       0.000000   0.000000  -0.000000   0.000000   0.000000   0.002268
     47       0.000000  -0.000000   0.000000   0.000000  -0.000000  -0.000000
     48      -0.000000   0.000000  -0.000000  -0.000000   0.000000  -0.000000
     49       0.000000  -0.000000   0.021378  -0.000000   0.000000   0.095105
     50      -0.002662   0.000000  -0.000000  -0.004097  -0.000000   0.000000
     51       0.000000  -0.002662  -0.000000  -0.000000  -0.004097  -0.000000
                 12         13         14         15         16         17    
      0      -0.000000   0.000000  -0.000007  -0.000000   0.000000  -0.000001
      1      -0.000000  -0.000000   0.000204   0.000000   0.000000   0.000104
      2      -0.000000   0.000000  -0.001157  -0.000000  -0.000000  -0.000151
      3      -0.000000  -0.000000  -0.012001  -0.000000  -0.000000  -0.000048
      4      -0.000000  -0.000000  -0.010913  -0.000000  -0.000000  -0.000025
      5       0.000000   0.000000  -0.361543   0.000000   0.000000  -0.001721
      6      -0.107951   0.000000  -0.000000  -0.361442  -0.000000  -0.000000
      7       0.000000  -0.107951   0.000000  -0.000000  -0.361442   0.000000
      8       0.000000   0.000000  -0.301733   0.000000   0.000000  -0.001277
      9      -0.130078   0.000000  -0.000000  -0.300983   0.000000  -0.000000
     10       0.000000  -0.130078   0.000000   0.000000  -0.300983   0.000000
     11      -0.000000  -0.000000  -0.188742  -0.000000  -0.000000  -0.000090
     12      -0.195703   0.000000  -0.000000  -0.184664   0.000000  -0.000000
     13       0.000000  -0.195703   0.000000   0.000000  -0.184664   0.000000
     14      -0.000000   0.000000  -0.250430  -0.000000   0.000000  -0.000312
     15      -0.184664   0.000000  -0.000000  -0.246519   0.000000  -0.000000
     16       0.000000  -0.184664   0.000000   0.000000  -0.246519   0.000000
     17      -0.000000   0.000000  -0.000312  -0.000000   0.000000   4.883093
     18      -0.000076   0.000000   0.000000  -0.000267   0.000000  -0.000000
     19       0.000000  -0.000076   0.000000   0.000000  -0.000267   0.000000
     20       0.000000   0.000000  -0.000000   0.000000   0.000000  -0.000000
     21       0.000000   0.000000   0.000000   0.000000   0.000000   0.000000
     22       0.000000   0.000000  -0.004319   0.000000   0.000000  -0.001419
     23      -0.001384   0.000000   0.000000  -0.003572   0.000000  -0.000000
     24       0.000000  -0.001384   0.000000   0.000000  -0.003572  -0.000000
     25      -0.000000  -0.000000  -0.000000  -0.000000   0.000000  -0.000000
     26       0.000000   0.000000   0.000000   0.000000  -0.000000   0.000000
     27       0.000000   0.000000  -0.012305   0.000000  -0.000000  -0.055508
     28      -0.008929   0.000000   0.000000  -0.009461   0.000000  -0.000000
     29       0.000000  -0.008929  -0.000000   0.000000  -0.009461  -0.000000
     30       0.000000   0.000000   0.000000   0.000000   0.000000   0.000000
     31       0.000000  -0.000000   0.000000   0.000000  -0.000000   0.000000
     32      -0.000000  -0.000000  -0.093244  -0.000000  -0.000000  -0.000027
     33      -0.140813   0.000000  -0.000000  -0.091112   0.000000  -0.000000
     34       0.000000  -0.140813   0.000000   0.000000  -0.091112   0.000000
     35       0.000000  -0.000000  -0.000003   0.000000   0.000000   0.000000
     36      -0.000000  -0.000000  -0.000007  -0.000000   0.000000   0.000001
     37      -0.000000  -0.000000  -0.000027  -0.000000  -0.000000   0.000000
     38       0.000000  -0.000000  -0.002451  -0.000000  -0.000000  -0.000002
     39       0.000000  -0.000000  -0.015756  -0.000000  -0.000000  -0.000243
     40       0.000000   0.000000   0.000107   0.000000   0.000000   0.000000
     41      -0.001339  -0.000000  -0.000000  -0.000005  -0.000000  -0.000000
     42      -0.000000  -0.001339  -0.000000  -0.000000  -0.000005  -0.000000
     43       0.000000   0.000000   0.013138   0.000000   0.000000   0.000081
     44      -0.009958   0.000000  -0.000000  -0.001333  -0.000000  -0.000000
     45       0.000000  -0.009958  -0.000000  -0.000000  -0.001333   0.000000
     46      -0.000000  -0.000000   0.000003   0.000000   0.000000  -0.000000
     47      -0.000263  -0.000000  -0.000000  -0.000000  -0.000000  -0.000000
     48      -0.000000  -0.000263  -0.000000  -0.000000  -0.000000   0.000000
     49       0.000000   0.000000   0.051903   0.000000  -0.000000   0.000906
     50      -0.030377   0.000000  -0.000000  -0.011930   0.000000  -0.000000
     51       0.000000  -0.030377  -0.000000   0.000000  -0.011930   0.000000
                 18         19         20         21         22         23    
      0       0.000000   0.000000  -0.000000  -0.000000   0.000000  -0.000000
      1       0.000000   0.000000  -0.000000   0.000000   0.000051   0.000000
      2      -0.000000  -0.000000   0.000000  -0.000000  -0.000276  -0.000000
      3      -0.000000  -0.000000  -0.000000  -0.000000  -0.000729  -0.000000
      4      -0.000000  -0.000000  -0.000000  -0.000000  -0.000449  -0.000000
      5      -0.000000  -0.000000   0.000000   0.000000  -0.001375   0.000000
      6      -0.001477   0.000000  -0.000000  -0.000000  -0.000000  -0.001169
      7       0.000000  -0.001477   0.000000  -0.000000   0.000000  -0.000000
      8      -0.000000  -0.000000   0.000000   0.000000  -0.005212  -0.000000
      9      -0.001093   0.000000  -0.000000  -0.000000  -0.000000  -0.004383
     10       0.000000  -0.001093   0.000000  -0.000000   0.000000  -0.000000
     11       0.000000   0.000000  -0.000000   0.000000  -0.001684   0.000000
     12      -0.000076   0.000000   0.000000   0.000000   0.000000  -0.001384
     13       0.000000  -0.000076   0.000000   0.000000   0.000000   0.000000
     14       0.000000   0.000000  -0.000000   0.000000  -0.004319   0.000000
     15      -0.000267   0.000000   0.000000   0.000000   0.000000  -0.003572
     16       0.000000  -0.000267   0.000000   0.000000   0.000000   0.000000
     17      -0.000000   0.000000  -0.000000   0.000000  -0.001419  -0.000000
     18       4.883138  -0.000000  -0.000000   0.000000  -0.000000  -0.001396
     19      -0.000000   4.883138  -0.000000  -0.000000   0.000000  -0.000000
     20      -0.000000  -0.000000   4.883272   0.000000  -0.000000   0.000000
     21       0.000000  -0.000000   0.000000   4.883272   0.000000   0.000000
     22      -0.000000   0.000000  -0.000000   0.000000   0.640152  -0.000000
     23      -0.001396  -0.000000   0.000000   0.000000  -0.000000   0.640453
     24      -0.000000  -0.001396  -0.000000  -0.000000  -0.000000  -0.000000
     25      -0.000000  -0.000000  -0.001329   0.000000  -0.000000   0.000000
     26       0.000000   0.000000   0.000000  -0.001329   0.000000   0.000000
     27      -0.000000  -0.000000   0.000000   0.000000  -0.025870  -0.000000
     28      -0.055504   0.000000  -0.000000  -0.000000  -0.000000  -0.025649
     29       0.000000  -0.055504   0.000000   0.000000  -0.000000  -0.000000
     30      -0.000000   0.000000  -0.055495  -0.000000  -0.000000  -0.000000
     31      -0.000000   0.000000  -0.000000  -0.055495  -0.000000  -0.000000
     32       0.000000   0.000000   0.000000   0.000000  -0.000564  -0.000000
     33      -0.000023  -0.000000   0.000000   0.000000   0.000000  -0.000462
     34      -0.000000  -0.000023   0.000000   0.000000   0.000000   0.000000
     35       0.000000  -0.000000   0.000000   0.000000  -0.000001   0.000000
     36       0.000000   0.000000  -0.000000  -0.000000  -0.000001   0.000000
     37      -0.000000   0.000000   0.000000   0.000000  -0.000001   0.000000
     38      -0.000000   0.000000  -0.000000   0.000000  -0.000069   0.000000
     39      -0.000000   0.000000  -0.000000   0.000000  -0.001584   0.000000
     40       0.000000   0.000000  -0.000000   0.000000   0.000000   0.000000
     41      -0.000000  -0.000000  -0.000000  -0.000000   0.000000  -0.000000
     42      -0.000000  -0.000000   0.000000  -0.000000  -0.000000  -0.000000
     43       0.000000  -0.000000   0.000000  -0.000000   0.001030   0.000000
     44      -0.000008   0.000000  -0.000000   0.000000  -0.000000  -0.000128
     45       0.000000  -0.000008  -0.000000  -0.000000  -0.000000   0.000000
     46      -0.000000   0.000000   0.000000   0.000000   0.000000   0.000000
     47       0.000000  -0.000000   0.000000  -0.000000   0.000000   0.000000
     48      -0.000000   0.000000   0.000000   0.000000  -0.000000   0.000000
     49       0.000000  -0.000000   0.000000  -0.000000   0.004660   0.000000
     50      -0.000346   0.000000   0.000000  -0.000000  -0.000000  -0.001942
     51       0.000000  -0.000346  -0.000000  -0.000000   0.000000   0.000000
                 24         25         26         27         28         29    
      0      -0.000000   0.000000   0.000000   0.000000  -0.000000  -0.000000
      1       0.000000  -0.000000  -0.000000   0.000012   0.000000  -0.000000
      2      -0.000000   0.000000   0.000000  -0.000091  -0.000000  -0.000000
      3      -0.000000   0.000000   0.000000  -0.003336   0.000000   0.000000
      4      -0.000000  -0.000000   0.000000  -0.003645   0.000000  -0.000000
      5      -0.000000   0.000000   0.000000  -0.000342   0.000000   0.000000
      6      -0.000000  -0.000000   0.000000   0.000000  -0.000287  -0.000000
      7      -0.001169   0.000000   0.000000  -0.000000  -0.000000  -0.000287
      8      -0.000000   0.000000   0.000000  -0.002382  -0.000000   0.000000
      9      -0.000000  -0.000000  -0.000000   0.000000  -0.001968  -0.000000
     10      -0.004383   0.000000  -0.000000  -0.000000  -0.000000  -0.001968
     11       0.000000  -0.000000   0.000000  -0.012264   0.000000   0.000000
     12       0.000000  -0.000000   0.000000   0.000000  -0.008929   0.000000
     13      -0.001384  -0.000000   0.000000   0.000000   0.000000  -0.008929
     14       0.000000  -0.000000   0.000000  -0.012305   0.000000  -0.000000
     15       0.000000  -0.000000   0.000000   0.000000  -0.009461   0.000000
     16      -0.003572   0.000000  -0.000000  -0.000000   0.000000  -0.009461
     17      -0.000000  -0.000000   0.000000  -0.055508  -0.000000  -0.000000
     18      -0.000000  -0.000000   0.000000  -0.000000  -0.055504   0.000000
     19      -0.001396  -0.000000   0.000000  -0.000000   0.000000  -0.055504
     20      -0.000000  -0.001329   0.000000   0.000000  -0.000000   0.000000
     21      -0.000000   0.000000  -0.001329   0.000000  -0.000000   0.000000
     22      -0.000000  -0.000000   0.000000  -0.025870  -0.000000  -0.000000
     23      -0.000000   0.000000   0.000000  -0.000000  -0.025649  -0.000000
     24       0.640453  -0.000000  -0.000000  -0.000000  -0.000000  -0.025649
     25      -0.000000   0.641255   0.000000  -0.000000  -0.000000   0.000000
     26      -0.000000   0.000000   0.641256  -0.000000  -0.000000  -0.000000
     27      -0.000000  -0.000000  -0.000000  -0.032068   0.000000   0.000000
     28      -0.000000  -0.000000  -0.000000   0.000000  -0.030344   0.000000
     29      -0.025649   0.000000  -0.000000   0.000000   0.000000  -0.030344
     30       0.000000  -0.025105   0.000000   0.000000   0.000000   0.000000
     31      -0.000000   0.000000  -0.025104   0.000000   0.000000  -0.000000
     32       0.000000   0.000000   0.000000  -0.006233  -0.000000   0.000000
     33       0.000000  -0.000000  -0.000000   0.000000  -0.004407  -0.000000
     34      -0.000462   0.000000  -0.000000  -0.000000  -0.000000  -0.004407
     35       0.000000   0.000000  -0.000000  -0.000002  -0.000000   0.000000
     36       0.000000   0.000000   0.000000  -0.000007   0.000000   0.000000
     37       0.000000   0.000000   0.000000  -0.000040  -0.000000   0.000000
     38      -0.000000  -0.000000  -0.000000  -0.003425  -0.000000  -0.000000
     39       0.000000  -0.000000   0.000000  -0.012237   0.000000  -0.000000
     40       0.000000  -0.000000   0.000000   0.000179   0.000000   0.000000
     41      -0.000000  -0.000000  -0.000000   0.000000  -0.000014  -0.000000
     42      -0.000000   0.000000  -0.000000  -0.000000  -0.000000  -0.000014
     43      -0.000000   0.000000  -0.000000   0.014827  -0.000000   0.000000
     44       0.000000  -0.000000  -0.000000   0.000000  -0.002854   0.000000
     45      -0.000128  -0.000000  -0.000000  -0.000000   0.000000  -0.002854
     46       0.000000  -0.000000   0.000000   0.000004   0.000000   0.000000
     47       0.000000   0.000000  -0.000000   0.000000  -0.000000   0.000000
     48       0.000000  -0.000000   0.000000  -0.000000   0.000000  -0.000000
     49      -0.000000   0.000000  -0.000000   0.023350   0.000000   0.000000
     50       0.000000  -0.000000  -0.000000   0.000000  -0.011767   0.000000
     51      -0.001942  -0.000000  -0.000000  -0.000000   0.000000  -0.011767
                 30         31         32         33         34         35    
      0       0.000000   0.000000  -0.000001  -0.000000  -0.000000   0.000000
      1      -0.000000   0.000000   0.000020  -0.000000  -0.000000   0.000000
      2       0.000000   0.000000  -0.000121  -0.000000  -0.000000   0.000000
      3      -0.000000  -0.000000  -0.007089  -0.000000  -0.000000  -0.000161
      4      -0.000000   0.000000  -0.019925  -0.000000  -0.000000  -0.010966
      5       0.000000  -0.000000  -0.033027   0.000000   0.000000   0.000000
      6      -0.000000   0.000000  -0.000000  -0.033012   0.000000   0.000000
      7       0.000000  -0.000000  -0.000000   0.000000  -0.033012  -0.000000
      8      -0.000000  -0.000000  -0.045278   0.000000   0.000000   0.000000
      9      -0.000000   0.000000   0.000000  -0.045177  -0.000000   0.000000
     10       0.000000  -0.000000  -0.000000  -0.000000  -0.045177   0.000000
     11       0.000000   0.000000  -0.153841  -0.000000  -0.000000  -0.011771
     12       0.000000   0.000000  -0.000000  -0.140813   0.000000   0.000000
     13       0.000000  -0.000000  -0.000000   0.000000  -0.140813  -0.000000
     14       0.000000   0.000000  -0.093244  -0.000000   0.000000  -0.000003
     15       0.000000   0.000000  -0.000000  -0.091112   0.000000   0.000000
     16       0.000000  -0.000000  -0.000000   0.000000  -0.091112   0.000000
     17       0.000000   0.000000  -0.000027  -0.000000   0.000000   0.000000
     18      -0.000000  -0.000000   0.000000  -0.000023  -0.000000   0.000000
     19       0.000000   0.000000   0.000000  -0.000000  -0.000023  -0.000000
     20      -0.055495  -0.000000   0.000000   0.000000   0.000000   0.000000
     21      -0.000000  -0.055495   0.000000   0.000000   0.000000   0.000000
     22      -0.000000  -0.000000  -0.000564   0.000000   0.000000  -0.000001
     23      -0.000000  -0.000000  -0.000000  -0.000462   0.000000   0.000000
     24       0.000000  -0.000000   0.000000   0.000000  -0.000462   0.000000
     25      -0.025105   0.000000   0.000000  -0.000000   0.000000   0.000000
     26       0.000000  -0.025104   0.000000  -0.000000  -0.000000  -0.000000
     27       0.000000   0.000000  -0.006233   0.000000  -0.000000  -0.000002
     28       0.000000   0.000000  -0.000000  -0.004407  -0.000000  -0.000000
     29       0.000000  -0.000000   0.000000  -0.000000  -0.004407   0.000000
     30      -0.027066   0.000000   0.000000  -0.000000   0.000000   0.000000
     31       0.000000  -0.027069  -0.000000   0.000000  -0.000000  -0.000000
     32       0.000000  -0.000000  -0.179489  -0.000000  -0.000000  -0.074398
     33      -0.000000   0.000000  -0.000000  -0.151750   0.000000  -0.000000
     34       0.000000  -0.000000  -0.000000   0.000000  -0.151750  -0.000000
     35       0.000000  -0.000000  -0.074398  -0.000000  -0.000000   2.600374
     36       0.000000   0.000000  -0.086450   0.000000  -0.000000  -3.079828
     37       0.000000   0.000000  -0.090382  -0.000000  -0.000000  -2.302909
     38      -0.000000   0.000000  -0.115225   0.000000  -0.000000  -0.701328
     39      -0.000000   0.000000  -0.134590   0.000000  -0.000000  -0.346746
     40      -0.000000   0.000000   0.015833  -0.000000   0.000000   0.000313
     41      -0.000000  -0.000000  -0.000000  -0.006129  -0.000000   0.000000
     42       0.000000  -0.000000   0.000000  -0.000000  -0.006129  -0.000000
     43      -0.000000  -0.000000   0.056429  -0.000000   0.000000   0.000079
     44       0.000000   0.000000   0.000000  -0.025089  -0.000000  -0.000000
     45       0.000000  -0.000000  -0.000000  -0.000000  -0.025089  -0.000000
     46      -0.000000   0.000000   0.004176  -0.000000  -0.000000   0.000741
     47      -0.000000   0.000000  -0.000000  -0.001575  -0.000000   0.000000
     48       0.000000  -0.000000  -0.000000  -0.000000  -0.001575  -0.000000
     49       0.000000  -0.000000   0.085514   0.000000   0.000000   0.000021
     50      -0.000000   0.000000   0.000000  -0.053188   0.000000  -0.000000
     51       0.000000  -0.000000  -0.000000   0.000000  -0.053188  -0.000000
                 36         37         38         39         40         41    
      0       0.000000   0.000000  -0.000006  -0.007045  -0.000000  -0.000000
      1       0.000001   0.000000   0.000008   0.006324   0.000000   0.000000
      2       0.000000   0.000001  -0.000017  -0.007498  -0.000000  -0.000000
      3      -0.000232  -0.000380  -0.003533  -0.018873   0.000588   0.000000
      4      -0.013089  -0.014492  -0.025641  -0.046597   0.006363  -0.000000
      5       0.000000  -0.000000  -0.000011  -0.002282   0.000001  -0.000000
      6      -0.000000  -0.000000  -0.000000  -0.000000   0.000000  -0.000000
      7       0.000000  -0.000000  -0.000000   0.000000   0.000000  -0.000000
      8       0.000000  -0.000000  -0.000059  -0.003958   0.000001  -0.000000
      9       0.000000   0.000000   0.000000   0.000000   0.000000  -0.000000
     10       0.000000  -0.000000  -0.000000   0.000000   0.000000  -0.000000
     11      -0.014422  -0.016802  -0.035011  -0.059343   0.010343  -0.000000
     12      -0.000000  -0.000000   0.000000   0.000000   0.000000  -0.001339
     13      -0.000000  -0.000000  -0.000000  -0.000000   0.000000  -0.000000
     14      -0.000007  -0.000027  -0.002451  -0.015756   0.000107  -0.000000
     15      -0.000000  -0.000000  -0.000000  -0.000000   0.000000  -0.000005
     16       0.000000  -0.000000  -0.000000  -0.000000   0.000000  -0.000000
     17       0.000001   0.000000  -0.000002  -0.000243   0.000000  -0.000000
     18       0.000000  -0.000000  -0.000000  -0.000000   0.000000  -0.000000
     19       0.000000   0.000000   0.000000   0.000000   0.000000  -0.000000
     20      -0.000000   0.000000  -0.000000  -0.000000  -0.000000  -0.000000
     21      -0.000000   0.000000   0.000000   0.000000   0.000000  -0.000000
     22      -0.000001  -0.000001  -0.000069  -0.001584   0.000000   0.000000
     23       0.000000   0.000000   0.000000   0.000000   0.000000  -0.000000
     24       0.000000   0.000000  -0.000000   0.000000   0.000000  -0.000000
     25       0.000000   0.000000  -0.000000  -0.000000  -0.000000  -0.000000
     26       0.000000   0.000000  -0.000000   0.000000   0.000000  -0.000000
     27      -0.000007  -0.000040  -0.003425  -0.012237   0.000179   0.000000
     28       0.000000  -0.000000  -0.000000   0.000000   0.000000  -0.000014
     29       0.000000   0.000000  -0.000000  -0.000000   0.000000  -0.000000
     30       0.000000   0.000000  -0.000000  -0.000000  -0.000000  -0.000000
     31       0.000000   0.000000   0.000000   0.000000   0.000000  -0.000000
     32      -0.086450  -0.090382  -0.115225  -0.134590   0.015833  -0.000000
     33       0.000000  -0.000000   0.000000   0.000000  -0.000000  -0.006129
     34      -0.000000  -0.000000  -0.000000  -0.000000   0.000000  -0.000000
     35      -3.079828  -2.302909  -0.701328  -0.346746   0.000313   0.000000
     36      -2.057644  -1.823168  -0.759006  -0.393203   0.001525   0.000000
     37      -1.823168  -1.294773  -0.691549  -0.390567   0.004176   0.000000
     38      -0.759006  -0.691549  -0.520930  -0.383432   0.005045   0.000000
     39      -0.393203  -0.390567  -0.383432  -0.339656   0.003160  -0.000000
     40       0.001525   0.004176   0.005045   0.003160   0.104445  -0.000000
     41       0.000000   0.000000   0.000000  -0.000000  -0.000000   0.105329
     42      -0.000000  -0.000000  -0.000000  -0.000000   0.000000  -0.000000
     43       0.000285   0.001270   0.010767   0.015314  -0.151360   0.000000
     44      -0.000000  -0.000000  -0.000000  -0.000000  -0.000000  -0.150786
     45       0.000000   0.000000  -0.000000  -0.000000   0.000000  -0.000000
     46       0.001911   0.001615   0.000542   0.000271  -0.172015  -0.000000
     47      -0.000000   0.000000   0.000000  -0.000000  -0.000000  -0.171958
     48       0.000000   0.000000  -0.000000  -0.000000  -0.000000  -0.000000
     49       0.000078   0.000386   0.006515   0.017616  -0.064473  -0.000000
     50      -0.000000  -0.000000  -0.000000  -0.000000   0.000000  -0.064271
     51       0.000000   0.000000  -0.000000  -0.000000  -0.000000   0.000000
                 42         43         44         45         46         47    
      0      -0.000000   0.000466   0.000000  -0.000000  -0.000000  -0.000000
      1       0.000000  -0.000521   0.000000  -0.000000   0.000000   0.000000
      2      -0.000000   0.000780  -0.000000   0.000000  -0.000000  -0.000000
      3      -0.000000   0.013367   0.000000  -0.000000   0.000066   0.000000
      4      -0.000000   0.033931   0.000000  -0.000000   0.001495  -0.000000
      5      -0.000000   0.000425  -0.000000   0.000000  -0.000000  -0.000000
      6      -0.000000   0.000000  -0.000024  -0.000000   0.000000   0.000000
      7      -0.000000  -0.000000  -0.000000  -0.000024   0.000000  -0.000000
      8      -0.000000   0.001273  -0.000000   0.000000  -0.000000   0.000000
      9      -0.000000   0.000000  -0.000083  -0.000000   0.000000   0.000000
     10      -0.000000   0.000000  -0.000000  -0.000083   0.000000  -0.000000
     11      -0.000000   0.053149   0.000000  -0.000000   0.002268  -0.000000
     12      -0.000000   0.000000  -0.009958   0.000000  -0.000000  -0.000263
     13      -0.001339   0.000000   0.000000  -0.009958  -0.000000  -0.000000
     14      -0.000000   0.013138  -0.000000  -0.000000   0.000003  -0.000000
     15      -0.000000   0.000000  -0.001333  -0.000000   0.000000  -0.000000
     16      -0.000005   0.000000  -0.000000  -0.001333   0.000000  -0.000000
     17      -0.000000   0.000081  -0.000000   0.000000  -0.000000  -0.000000
     18      -0.000000   0.000000  -0.000008   0.000000  -0.000000   0.000000
     19      -0.000000  -0.000000   0.000000  -0.000008   0.000000  -0.000000
     20       0.000000   0.000000  -0.000000  -0.000000   0.000000   0.000000
     21      -0.000000  -0.000000   0.000000  -0.000000   0.000000  -0.000000
     22      -0.000000   0.001030  -0.000000  -0.000000   0.000000   0.000000
     23      -0.000000   0.000000  -0.000128   0.000000   0.000000   0.000000
     24      -0.000000  -0.000000   0.000000  -0.000128   0.000000   0.000000
     25       0.000000   0.000000  -0.000000  -0.000000  -0.000000   0.000000
     26      -0.000000  -0.000000  -0.000000  -0.000000   0.000000  -0.000000
     27      -0.000000   0.014827   0.000000  -0.000000   0.000004   0.000000
     28      -0.000000  -0.000000  -0.002854   0.000000   0.000000  -0.000000
     29      -0.000014   0.000000   0.000000  -0.002854   0.000000   0.000000
     30       0.000000  -0.000000   0.000000   0.000000  -0.000000  -0.000000
     31      -0.000000  -0.000000   0.000000  -0.000000   0.000000   0.000000
     32       0.000000   0.056429   0.000000  -0.000000   0.004176  -0.000000
     33      -0.000000  -0.000000  -0.025089  -0.000000  -0.000000  -0.001575
     34      -0.006129   0.000000  -0.000000  -0.025089  -0.000000  -0.000000
     35      -0.000000   0.000079  -0.000000  -0.000000   0.000741   0.000000
     36      -0.000000   0.000285  -0.000000   0.000000   0.001911  -0.000000
     37      -0.000000   0.001270  -0.000000   0.000000   0.001615   0.000000
     38      -0.000000   0.010767  -0.000000  -0.000000   0.000542   0.000000
     39      -0.000000   0.015314  -0.000000  -0.000000   0.000271  -0.000000
     40       0.000000  -0.151360  -0.000000   0.000000  -0.172015  -0.000000
     41      -0.000000   0.000000  -0.150786  -0.000000  -0.000000  -0.171958
     42       0.105329  -0.000000  -0.000000  -0.150786  -0.000000  -0.000000
     43      -0.000000  -0.205533   0.000000   0.000000  -0.068551   0.000000
     44      -0.000000   0.000000  -0.199609   0.000000  -0.000000  -0.068542
     45      -0.150786   0.000000   0.000000  -0.199609   0.000000   0.000000
     46      -0.000000  -0.068551  -0.000000   0.000000   4.851245  -0.000000
     47      -0.000000   0.000000  -0.068542   0.000000  -0.000000   4.851351
     48      -0.171958   0.000000   0.000000  -0.068542  -0.000000  -0.000000
     49      -0.000000  -0.159292  -0.000000   0.000000  -0.019670   0.000000
     50       0.000000  -0.000000  -0.152980   0.000000   0.000000  -0.019667
     51      -0.064271   0.000000   0.000000  -0.152980   0.000000  -0.000000
                 48         49         50         51    
      0      -0.000000   0.083578   0.000000   0.000000
      1       0.000000  -0.071463  -0.000000  -0.000000
      2       0.000000   0.080699  -0.000000   0.000000
      3       0.000000   0.087357  -0.000000  -0.000000
      4       0.000000   0.103614   0.000000  -0.000000
      5      -0.000000   0.014637  -0.000000  -0.000000
      6      -0.000000   0.000000  -0.002662   0.000000
      7       0.000000  -0.000000   0.000000  -0.002662
      8      -0.000000   0.021378  -0.000000  -0.000000
      9      -0.000000  -0.000000  -0.004097  -0.000000
     10       0.000000   0.000000  -0.000000  -0.004097
     11      -0.000000   0.095105   0.000000  -0.000000
     12      -0.000000   0.000000  -0.030377   0.000000
     13      -0.000263   0.000000   0.000000  -0.030377
     14      -0.000000   0.051903  -0.000000  -0.000000
     15      -0.000000   0.000000  -0.011930   0.000000
     16      -0.000000  -0.000000   0.000000  -0.011930
     17       0.000000   0.000906  -0.000000   0.000000
     18      -0.000000   0.000000  -0.000346   0.000000
     19       0.000000  -0.000000   0.000000  -0.000346
     20       0.000000   0.000000   0.000000  -0.000000
     21       0.000000  -0.000000  -0.000000  -0.000000
     22      -0.000000   0.004660  -0.000000   0.000000
     23       0.000000   0.000000  -0.001942   0.000000
     24       0.000000  -0.000000   0.000000  -0.001942
     25      -0.000000   0.000000  -0.000000  -0.000000
     26       0.000000  -0.000000  -0.000000  -0.000000
     27      -0.000000   0.023350   0.000000  -0.000000
     28       0.000000   0.000000  -0.011767   0.000000
     29      -0.000000   0.000000   0.000000  -0.011767
     30       0.000000   0.000000  -0.000000   0.000000
     31      -0.000000  -0.000000   0.000000  -0.000000
     32      -0.000000   0.085514   0.000000  -0.000000
     33      -0.000000   0.000000  -0.053188   0.000000
     34      -0.001575   0.000000   0.000000  -0.053188
     35      -0.000000   0.000021  -0.000000  -0.000000
     36       0.000000   0.000078  -0.000000   0.000000
     37       0.000000   0.000386  -0.000000   0.000000
     38      -0.000000   0.006515  -0.000000  -0.000000
     39      -0.000000   0.017616  -0.000000  -0.000000
     40      -0.000000  -0.064473   0.000000  -0.000000
     41      -0.000000  -0.000000  -0.064271   0.000000
     42      -0.171958  -0.000000   0.000000  -0.064271
     43       0.000000  -0.159292  -0.000000   0.000000
     44       0.000000  -0.000000  -0.152980   0.000000
     45      -0.068542   0.000000   0.000000  -0.152980
     46      -0.000000  -0.019670   0.000000   0.000000
     47      -0.000000   0.000000  -0.019667  -0.000000
     48       4.851351   0.000000  -0.000000  -0.019667
     49       0.000000  -0.191980  -0.000000   0.000000
     50      -0.000000  -0.000000  -0.172785   0.000000
     51      -0.019667   0.000000   0.000000  -0.172785



                    ********************************
                    * MULLIKEN POPULATION ANALYSIS *
                    ********************************

-----------------------
MULLIKEN ATOMIC CHARGES
-----------------------
   0 Na:    0.999937
   1 Li:    1.000063
Sum of atomic charges:    2.0000000

--------------------------------
MULLIKEN REDUCED ORBITAL CHARGES
--------------------------------
  0 Nas       :     3.999991  s :     3.999991
      pz      :     2.000069  p :     6.000066
      px      :     1.999999
      py      :     1.999999
      dz2     :     0.000003  d :     0.000006
      dxz     :     0.000002
      dyz     :     0.000002
      dx2y2   :     0.000000
      dxy     :     0.000000

  1 Lis       :     1.999904  s :     1.999904
      pz      :     0.000034  p :     0.000033
      px      :    -0.000001
      py      :    -0.000001


------------------------
MULLIKEN OVERLAP CHARGES
------------------------


-------------------------------------------
MULLIKEN REDUCED ORBITAL POPULATIONS PER MO
--------------------------------------------
THRESHOLD FOR PRINTING IS 0.1%%
                      0         1         2         3         4         5   
                 -39.08906  -2.72878  -2.54901  -1.63041  -1.63019  -1.63019
                   2.00000   2.00000   2.00000   2.00000   2.00000   2.00000
                  --------  --------  --------  --------  --------  --------
 0 Na s             100.0     100.0       0.0       0.0       0.0      -0.0
 0 Na pz              0.0       0.0       0.0     100.0       0.0       0.0
 0 Na px              0.0       0.0       0.0       0.0       6.2      93.8
 0 Na py              0.0       0.0       0.0       0.0      93.8       6.2
 1 Li s               0.0       0.0     100.0       0.0       0.0       0.0

                      6         7         8         9        10        11   
                  -0.30261  -0.29233  -0.22595  -0.21844  -0.21844  -0.20025
                   0.00000   0.00000   0.00000   0.00000   0.00000   0.00000
                  --------  --------  --------  --------  --------  --------
 0 Na s              16.3      79.9       4.1       0.0       0.0       0.0
 0 Na pz              1.7       1.3      19.1       0.0       0.0       0.0
 0 Na px              0.0       0.0       0.0       0.1       2.7      26.7
 0 Na py              0.0       0.0       0.0       2.7       0.1      69.8
 0 Na dz2             0.1       0.0       0.4       0.0       0.0       0.0
 0 Na dyz             0.0       0.0       0.0       0.0       0.0       0.2
 1 Li s              78.4      18.4       4.5       0.0       0.0       0.0
 1 Li pz              3.5       0.3      71.8       0.0       0.0       0.0
 1 Li px              0.0       0.0       0.0       4.1      93.0       0.9
 1 Li py              0.0       0.0       0.0      93.0       4.1       2.3

                     12        13        14        15        16        17   
                  -0.20025  -0.19848  -0.14071  -0.12033  -0.12033  -0.11408
                   0.00000   0.00000   0.00000   0.00000   0.00000   0.00000
                  --------  --------  --------  --------  --------  --------
 0 Na s               0.0       0.9      65.4       0.0      -0.0      22.7
 0 Na pz              0.0      73.5      14.6      -0.0      -0.0      50.3
 0 Na px             69.8       0.0       0.0      27.7      15.3       0.0
 0 Na py             26.7       0.0       0.0      15.3      27.7       0.0
 0 Na dz2             0.0       0.1       0.0       0.0       0.0      -0.0
 0 Na dxz             0.2       0.0       0.0       0.1       0.0       0.0
 1 Li s              -0.0       0.5      13.5       0.0       0.0      24.1
 1 Li pz              0.0      24.9       6.5      -0.0      -0.0       2.9
 1 Li px              2.3       0.0      -0.0      36.6      20.2       0.0
 1 Li py              0.9       0.0       0.0      20.2      36.6       0.0

                     18        19        20        21        22        23   
                  -0.10287  -0.10287  -0.10213  -0.09129  -0.02873  -0.02873
                   0.00000   0.00000   0.00000   0.00000   0.00000   0.00000
                  --------  --------  --------  --------  --------  --------
 0 Na s               0.0       0.0       6.7       2.8       0.0       0.0
 0 Na pz              0.0       0.0       3.6      33.5       0.0       0.0
 0 Na px             13.0      44.0       0.0       0.0       0.3       0.4
 0 Na py             44.0      13.0       0.0       0.0       0.4       0.3
 0 Na dz2             0.0       0.0       0.7      12.0       0.0       0.0
 0 Na dxz             0.3       1.1       0.0       0.0      44.8      53.2
 0 Na dyz             1.1       0.3       0.0       0.0      53.2      44.8
 1 Li s               0.0       0.0       6.0      48.6      -0.0      -0.0
 1 Li pz              0.0       0.0      83.1       3.1      -0.0      -0.0
 1 Li px              9.5      32.1       0.0       0.0       0.6       0.7
 1 Li py             32.1       9.5       0.0       0.0       0.7       0.6

                     24        25        26        27        28        29   
                  -0.02794  -0.02793  -0.01799  -0.01340  -0.00953  -0.00953
                   0.00000   0.00000   0.00000   0.00000   0.00000   0.00000
                  --------  --------  --------  --------  --------  --------
 0 Na s               0.0       0.0       1.8      -0.6       0.0       0.0
 0 Na pz              0.0       0.0      25.7      76.5       0.0       0.0
 0 Na px              0.0       0.0       0.0       0.0      31.4      68.5
 0 Na py              0.0       0.0       0.0       0.0      68.5      31.4
 0 Na dz2             0.0       0.0      65.1      21.7       0.0       0.0
 0 Na dx2y2           0.0     100.0       0.0       0.0       0.0       0.0
 0 Na dxy           100.0       0.0       0.0       0.0       0.0       0.0
 1 Li s               0.0       0.0       4.6       1.2       0.0       0.0
 1 Li pz              0.0       0.0       2.8       1.3      -0.0       0.0

                     30        31        32        33        34        35   
                   0.27202   0.27202   0.27453   0.79065   0.79065   0.79133
                   0.00000   0.00000   0.00000   0.00000   0.00000   0.00000
                  --------  --------  --------  --------  --------  --------
 0 Na pz              0.0       0.0       0.1       0.0       0.0       0.0
 0 Na dxz             0.0       0.0       0.0       1.6      98.3       0.0
 0 Na dyz             0.0       0.0       0.0      98.3       1.6       0.0
 0 Na dxy             0.0       0.0       0.0       0.0       0.0     100.0
 1 Li s               0.0       0.0       0.1       0.0       0.0       0.0
 1 Li pz              0.0       0.0      99.7       0.0      -0.0       0.0
 1 Li px              2.1      97.9       0.0       0.0       0.0       0.0
 1 Li py             97.9       2.1       0.0       0.0       0.0       0.0

                     36        37        38        39        40        41   
[...]
      Donor (L) NBO              Acceptor (NL) NBO      kcal/mol   a.u.    a.u.
 ===============================================================================

 within unit  1
       None above threshold

 from unit  1 to unit  2
       None above threshold

 from unit  2 to unit  1
       None above threshold

 within unit  2
       None above threshold


 NATURAL BOND ORBITALS (Summary):

                                                     Principal Delocalizations
           NBO                 Occupancy    Energy   (geminal,vicinal,remote)
 ===============================================================================
 Molecular unit  1  (Na)
 ------ Lewis --------------------------------------
    1. CR ( 1)Na  1             2.00000   -38.51072
    2. CR ( 2)Na  1             2.00000    -3.30711
    3. CR ( 3)Na  1             2.00000    -1.63019
    4. CR ( 4)Na  1             2.00000    -1.63019
    5. CR ( 5)Na  1             1.99999    -1.63041
 ------ non-Lewis ----------------------------------
    7. LV ( 1)Na  1             0.00000     0.02266
    9. RY ( 1)Na  1             0.00000     0.31952
   10. RY ( 2)Na  1             0.00000    -0.05821
   11. RY ( 3)Na  1             0.00000     0.60834
   12. RY ( 4)Na  1             0.00000     0.60834
   13. RY ( 5)Na  1             0.00000     0.65191
   14. RY ( 6)Na  1             0.00000     2.30356
   15. RY ( 7)Na  1             0.00000     0.72671
   16. RY ( 8)Na  1             0.00000     0.59173
   17. RY ( 9)Na  1             0.00000    -0.03055
   18. RY (10)Na  1             0.00000    -0.13543
   19. RY (11)Na  1             0.00000     0.43262
   20. RY (12)Na  1             0.00000     2.71401
   21. RY (13)Na  1             0.00000     5.16935
   22. RY (14)Na  1             0.00000     5.34807
   23. RY (15)Na  1             0.00000     0.24626
   24. RY (16)Na  1             0.00000     0.60688
   25. RY (17)Na  1             0.00000     0.23956
   26. RY (18)Na  1             0.00000     5.30411
   27. RY (19)Na  1             0.00000     0.41030
   28. RY (20)Na  1             0.00000     3.99702
   29. RY (21)Na  1             0.00000     1.98889
   30. RY (22)Na  1             0.00000     2.17609
   31. RY (23)Na  1             0.00000     0.28999
   32. RY (24)Na  1             0.00000    -0.08219
   33. RY (25)Na  1             0.00000     0.43690
   34. RY (26)Na  1             0.00000     0.11992
   35. RY (27)Na  1             0.00000     0.18469
   36. RY (28)Na  1             0.00000     0.04523
   37. RY (29)Na  1             0.00000     0.53349
          -------------------------------
                 Total Lewis    9.99999  ( 99.9999%)
           Valence non-Lewis    0.00000  (  0.0000%)
           Rydberg non-Lewis    0.00001  (  0.0001%)
          -------------------------------
               Total unit  1   10.00000  (100.0000%)
              Charge unit  1    1.00000

 Molecular unit  2  (Li)
 ------ Lewis --------------------------------------
    6. CR ( 1)Li  2             2.00000    -2.54901
 ------ non-Lewis ----------------------------------
    8. LV ( 1)Li  2             0.00000    -0.17775
   38. RY ( 1)Li  2             0.00000     0.15449
   39. RY ( 2)Li  2             0.00000     0.75616
   40. RY ( 3)Li  2             0.00000     4.83050
   41. RY ( 4)Li  2             0.00000     0.34220
   42. RY ( 5)Li  2             0.00000     0.45435
   43. RY ( 6)Li  2             0.00000     4.26988
   44. RY ( 7)Li  2             0.00000     5.02456
   45. RY ( 8)Li  2             0.00000     0.80155
   46. RY ( 9)Li  2             0.00000     0.32224
   47. RY (10)Li  2             0.00000     0.33783
   48. RY (11)Li  2             0.00000    11.03902
   49. RY (12)Li  2             0.00000     3.31145
   50. RY (13)Li  2             0.00000    -0.12599
   51. RY (14)Li  2             0.00000    -0.12599
   52. RY (15)Li  2             0.00000    -0.14474
          -------------------------------
                 Total Lewis    2.00000  ( 99.9998%)
           Valence non-Lewis    0.00000  (  0.0000%)
           Rydberg non-Lewis    0.00000  (  0.0001%)
          -------------------------------
               Total unit  2    2.00000  (100.0000%)
              Charge unit  2    1.00000

 $CHOOSE
 $END

 NBO analysis completed in 0.06 CPU seconds (0 wall seconds)
 Maximum scratch memory used by NBO was 548618 words (4.19 MB)
Stopping NBO...-------
TIMINGS
-------

Total SCF time: 0 days 0 hours 0 min 2 sec 

Total time                  ....       2.023 sec
Sum of individual times     ....       2.000 sec  ( 98.8%)

SCF preparation             ....       0.200 sec  (  9.9%)
Fock matrix formation       ....       1.565 sec  ( 77.3%)
  Startup                   ....       0.009 sec  (  0.6% of F)
  Split-RI-J                ....       0.035 sec  (  2.2% of F)
  Chain of spheres X        ....       0.637 sec  ( 40.7% of F)
  XC integration            ....       0.856 sec  ( 54.7% of F)
    XC Preparation          ....       0.014 sec  (  1.6% of XC)
    XC Prescreening         ....       0.084 sec  (  9.8% of XC)
    Basis function eval.    ....       0.532 sec  ( 62.2% of XC)
    Density eval.           ....       0.021 sec  (  2.5% of XC)
    XC-Functional eval.     ....       0.044 sec  (  5.1% of XC)
    XC-Potential eval.      ....       0.024 sec  (  2.8% of XC)
Diagonalization             ....       0.000 sec  (  0.0%)
Density matrix formation    ....       0.012 sec  (  0.6%)
Total Energy calculation    ....       0.016 sec  (  0.8%)
Population analysis         ....       0.094 sec  (  4.7%)
Orbital Transformation      ....       0.013 sec  (  0.6%)
Orbital Orthonormalization  ....       0.000 sec  (  0.0%)
DIIS solution               ....       0.100 sec  (  5.0%)
Finished LeanSCF after   2.0 sec

Maximum memory used throughout the entire LEANSCF-calculation: 6.4 MB


           ************************************************************
           *        Program running with 20 parallel MPI-processes    *
           *              working on a common directory               *
           ************************************************************

------------------------------------------------------------------------------
                         ORCA PROPERTY INTEGRAL CALCULATIONS
------------------------------------------------------------------------------

GBWName                                   ... /tmp/tmp_foczt3q/orca.gbw
Number of atoms                           ...      2
Number of basis functions                 ...     52
Max core memory                           ...   2035 MB

Dipole integrals                          ... YES
Quadrupole integrals                      ... YES
Linear momentum integrals                 ...  NO
Angular momentum integrals                ...  NO
Higher moments length integrals           ...  NO
Higher moments velocity integrals         ...  NO
Kinetic energy integrals                  ...  NO
GIAO right hand sides                     ...  NO
GIAO dipole derivative integrals          ...  NO
SOC integrals                             ...  NO
EPR diamagnetic integrals (GIAO)          ...  NO
EPR gauge integrals                       ...  NO
Field gradient integrals                  ...  NO (   0 nuclei)
Spin-dipole/Fermi contact integrals       ...  NO (   0 nuclei)
Contact density integrals                 ...  NO (   0 nuclei)
Nucleus-orbit integrals                   ...  NO (   0 nuclei)
Geometric perturbations                   ...  NO (   2 nuclei)

Choice of electric origin   ... Center of mass
Position of electric origin ... (  0.0000,  0.0000,  2.9799) 
Choice of magnetic origin   ... GIAO
Position of magnetic origin ... (  0.0000,  0.0000,  0.0000) 

Calculating integrals                     ... Electric Dipole (Length)     done (  0.0 sec)
Calculating integrals                     ... Electric Quadrupole (Length) done (  0.0 sec)

Property integrals calculated in   0.0 sec

Maximum memory used throughout the entire PROPINT-calculation: 5.7 MB

-------------------------   --------------------
FINAL SINGLE POINT ENERGY      -169.266772972357
-------------------------   --------------------



           ************************************************************
           *        Program running with 20 parallel MPI-processes    *
           *              working on a common directory               *
           ************************************************************
------------------------------------------------------------------------------
                         ORCA SCF GRADIENT CALCULATION
------------------------------------------------------------------------------

Nuc. rep. gradient        (SHARK) ... done (  0.0 sec)
HCore & Overlap gradient  (SHARK) ... done (  0.0 sec)
Split-RIJ-J gradient      (SHARK) ... done (  0.2 sec)
COSX-gradient                     ... done (  0.2 sec)
XC gradient                       ... done (  0.0 sec)
NL correlation gradient           ... done (  0.1 sec)

------------------
CARTESIAN GRADIENT
------------------

   1   Na  :   -0.000000000    0.000000001    0.006047222
   2   Li  :    0.000000000   -0.000000001   -0.006047222

Difference to translation invariance:
           :    0.0000000000   -0.0000000000    0.0000000000

Difference to rotation invariance:
           :    0.0000000121    0.0000000027    0.0000000000

Norm of the Cartesian gradient     ...    0.0085520634
RMS gradient                       ...    0.0034913653
MAX gradient                       ...    0.0060472220

-------
TIMINGS
-------

Total SCF gradient time     ....        0.524 sec

Densities                   ....       0.000 sec  (  0.1%)
One electron gradient       ....       0.009 sec  (  1.7%)
RI-J Coulomb gradient       ....       0.167 sec  ( 31.9%)
COSX gradient               ....       0.238 sec  ( 45.4%)
XC gradient                 ....       0.032 sec  (  6.1%)
NL correlation gradient     ....       0.078 sec  ( 14.8%)

Maximum memory used throughout the entire SCFGRAD-calculation: 7.4 MB


           ************************************************************
           *        Program running with 20 parallel MPI-processes    *
           *              working on a common directory               *
           ************************************************************

------------------------------------------------------------------------------
                              ORCA PROPERTY CALCULATIONS
------------------------------------------------------------------------------

GBWName                                 ... /tmp/tmp_foczt3q/orca.gbw
Number of atoms                         ...      2
Number of basis functions               ...     52
Max core memory                         ...   2035 MB

Electric properties:
Dipole moment                           ... YES
Quadrupole moment                       ... YES
Static polarizability (Dipole/Dipole)   ...  NO
Static polarizability (Dipole/Quad.)    ...  NO
Static polarizability (Quad./Quad.)     ...  NO
Static polarizability (Velocity)        ...  NO

Atomic electric properties:
Dipole moment                           ...  NO
Quadrupole moment                       ...  NO
Static polarizability                   ...  NO

Choice of electric origin               ... Center of mass
Position of electric origin             ...     0.000000     0.000000     2.979946

General magnetic properties:
Magnetizability                         ...  NO

EPR properties:
g-Tensor (aka g-matrix)                 ...  NO
Zero-Field splitting spin-orbit         ...  NO
Zero-field splitting spin-spin          ...  NO
Hyperfine couplings                     ...  NO (   0 nuclei)
Quadrupole couplings                    ...  NO (   0 nuclei)
Contact density                         ...  NO (   0 nuclei)

NMR properties:
Chemical shifts                         ...  NO (   0 nuclei)
Spin-rotation constants                 ...  NO (   0 nuclei)
Spin-spin couplings                     ...  NO (   0 nuclei,    0 pairs)

Choice of magnetic origin               ... GIAO
Position of magnetic origin             ...     0.000000     0.000000     0.000000

Properties with geometric perturbations:
SCF Hessian                             ...  NO
IR spectrum                             ...  NO
VCD spectrum                            ...  NO
X-ray spectroscopy properties:
SCF XES/XAS/RIXS spectra                ...  NO


-------------
DIPOLE MOMENT
-------------

Method             : SCF
Type of density    : Electron Density
Multiplicity       :   1
Irrep              :   0
Energy             :  -169.2667729723571313 Eh
Relativity type    : 
Basis              : AO
                                X                 Y                 Z
Electronic contribution:      0.000000000      -0.000000000      10.054377907
Nuclear contribution   :      0.000000000       0.000000000      -3.168849327
                        -----------------------------------------
Total Dipole Moment    :      0.000000000      -0.000000000       6.885528581
                        -----------------------------------------
Magnitude (a.u.)       :      6.885528581
Magnitude (Debye)      :     17.501622775



--------------------
Rotational spectrum 
--------------------
 
Rotational constants in cm-1:             0.000000             0.068382             0.068382 
Rotational constants in MHz :             0.000000          2050.030540          2050.030540 

Dipole components along the rotational axes: 
x,y,z [a.u.] :     6.885529    -0.000000     0.000000 
x,y,z [Debye]:    17.501623    -0.000000     0.000000 

 

Dipole moment calculation done in   0.0 sec 

-----------------
QUADRUPOLE MOMENT
-----------------

Method             : SCF
Type of density    : Electron Density
Multiplicity       :   1
Irrep              :   0
Energy             :  -169.2667729723571313 Eh
Relativity type    : 
Basis              : AO

                XX              YY              ZZ              XY              XZ              YZ
  NUC        0.000000000     0.000000000   389.942615674     0.000000000     0.000000000     0.000000000
  EL        -2.477365958    -2.477365958  -286.062800532    -0.000000000     0.000000000    -0.000000000
  TOT       -2.477365958    -2.477365958   103.879815142    -0.000000000     0.000000000    -0.000000000 (a.u.)
            -3.332141940    -3.332141940   139.721904056    -0.000000000     0.000000000    -0.000000000 (Buckingham)

diagonalized tensor:
            -2.477365958    -2.477365958   103.879815142 (a.u.)
            -3.332141940    -3.332141940   139.721904056 (Buckingham)
          -143.054045996  -143.054045996   286.108091992 (traceless form in Buckingham)

            -0.662631333    -0.748945737     0.000000000
            -0.748945737     0.662631333    -0.000000000
            -0.000000000     0.000000000     1.000000000
        
Isotropic quadrupole :    32.975027742

Quadrupole moment calculation done in   0.0 sec (  0.0 sec for integrals)

Maximum memory used throughout the entire PROP-calculation: 3.7 MB

--------------------------------
SUGGESTED CITATIONS FOR THIS RUN
--------------------------------

Below you find a list of papers that are relevant to this ORCA run
We neither can nor want to force you to cite these papers, but we appreciate if you do
You receive ORCA, which is the product of decades of hard work by many enthusiastic individuals, for free
The only thing we kindly ask in return is that you cite our papers,
We deeply appreciate it, if you show your appreciation for ORCA by not just citing the generic ORCA reference.

Please note that relegating all ORCA citations to the supporting information does *not* help us.
SI sections are not indexed - citations you put there will not count into any citation statistics
But we need these citations in order to attract the funding resources that allow us to do what we are doing

Therefore, if you are a happy ORCA user, please consider citing a few of the papers listed below in the main body of your paper

In addition to the list printed below, the program has created the file /tmp/tmp_foczt3q/orca.bibtex that contains the list in bibtex format
You can import this file easily into all common literature databanks and citation aid programs


List of essential papers. We consider these as the minimum necessary citations

  1. Neese,F.
     Software update: the ORCA program system, version 5.0
     WIRES Comput. Molec. Sci., 2022 12(1)e1606
     doi.org/10.1002/wcms.1606

List of papers to cite with high priority. The work reported in these papers was absolutely
necessary for this run to complete.
Our perspective: the developers of density functionals and basis sets usually get cited in chemistry papers
Good! But without the algorithms to do something with them, the functionals or basis sets would not do anything.
Hence, in our opinion, the algorithm design and method developments papers are equally worthy of getting cited

  1. Neese,F.
     An improvement of the resolution of the identity approximation for the formation of the Coulomb matrix
     J. Comp. Chem., 2003 24(14)1740-1747
     doi.org/10.1002/jcc.10318
  2. Neese,F.; Wennmohs,F.; Hansen,A.; Becker,U.
     Efficient, approximate and parallel Hartree-Fock and hybrid DFT calculations. A 'chain-of-spheres' algorithm for the Hartree-Fock exchange
     Chem. Phys., 2009 356(1-3)98-109
     doi.org/10.1016/j.chemphys.2008.10.036
  3. Helmich-Paris,B.; de Souza,B.; Neese,F.; Izsák,R.
     An improved chain of spheres for exchange algorithm
     J. Chem. Phys., 2021 155 104109
     doi.org/doi: 10.1063/5.0058766.
  4. Neese,F.
     The SHARK Integral Generation and Digestion System
     J. Comp. Chem., 2022  1-16
     doi.org/10.1002/jcc.26942
  5. Lehtola,S.; Steigemann,C.; Oliveira,M.; Marques,M.
     Recent developments in Libxc - A comprehensive library of functionals for density functional theory
     Software X, 2018 7 
     doi.org/10.1016/j.softx.2017.11.002

List of suggested additional citations. These are papers that are important in the 'surrounding' of 
of this run, or papers that preceded the highly important papers. If you like your results we are grateful for a citation.

  1. Izsak,R.; Neese,F.
     An overlap fitted chain of spheres exchange method
     J. Chem. Phys., 2011 135 144105
     doi.org/10.1063/1.3646921
  2. Izsak,R.; Hansen,A.; Neese,F.
     The resolution of identity and chain of spheres approximations for the LPNO-CCSD singles Fock term
     Molec. Phys., 2012 110 2413-2417
     doi.org/10.1080/00268976.2012.687466
  3. Neese,F.
     The ORCA program system
     WIRES Comput. Molec. Sci., 2012 2(1)73-78
     doi.org/10.1002/wcms.81
  4. Izsak,R.; Neese,F.; Klopper,W.
     Robust fitting techniques in the chain of spheres approximation to the Fock exchange: The role of the complementary space
     J. Chem. Phys., 2013 139 
     doi.org/10.1063/1.4819264
  5. Neese,F.
     Software update: the ORCA program system, version 4.0
     WIRES Comput. Molec. Sci., 2018 8(1)1-6
     doi.org/10.1002/wcms.1327
  6. Neese,F.; Wennmohs,F.; Becker,U.; Riplinger,C.
     The ORCA quantum chemistry program package
     J. Chem. Phys., 2020 152 Art. No. L224108
     doi.org/10.1063/5.0004608

Timings for individual modules:

Sum of individual times          ...        5.302 sec (=   0.088 min)
Startup calculation              ...        1.336 sec (=   0.022 min)  25.2 %
SCF iterations                   ...        2.525 sec (=   0.042 min)  47.6 %
Property integrals               ...        0.309 sec (=   0.005 min)   5.8 %
Property calculations            ...        0.301 sec (=   0.005 min)   5.7 %
SCF Gradient evaluation          ...        0.831 sec (=   0.014 min)  15.7 %
                             ****ORCA TERMINATED NORMALLY****
TOTAL RUN TIME: 0 days 0 hours 0 minutes 5 seconds 602 msec
