[Molden Format]
[Title]
 Molden file created by orca_2mkl for BaseName=input

[Atoms] AU
C    1   6          0.1644061737         2.9249181101        -0.3979763238 
C    2   6          0.0655734968         0.0882502105        -0.0665183599 
C    3   6          1.0603253337        -1.7695395518        -2.1057218310 
C    4   6          0.0935414436        -3.4803086208         0.0251333576 
C    5   6          1.2776438391        -1.6404712569         2.0361799093 
C    6   6         -0.4025116665        -1.7504533179         4.3762277809 
C    7   6         -2.2593565657         0.3596148833         4.8743595898 
C    8   6         -2.9935151687        -1.8014759235         3.1594331233 
C    9   6         -2.2689941690        -1.7105800964         0.3705752949 
H   10   1          2.1253749828         3.5375673227        -0.6646166813 
H   11   1         -0.8915727900         3.4750173877        -2.0934386112 
H   12   1         -0.6092477056         3.9928023484         1.1884487656 
H   13   1          0.0188972613        -1.8101686637        -3.8928358359 
H   14   1          3.1010405858        -1.7491305096        -2.4453056173 
H   15   1          0.0939193889        -5.5416218877         0.1109269241 
H   16   1          3.3274297766        -1.6045664603         2.2778758818 
H   17   1          0.1120607597        -3.0131683205         5.9061500590 
H   18   1         -3.1320320944         0.3618825546         6.7321493521 
H   19   1         -1.9439612740         2.2336562903         4.1254611230 
H   20   1         -4.4582418951        -3.1025523667         3.7603660339 
H   21   1         -3.7643344588        -1.7451620847        -1.0523884840 
[GTO]
  1 0
s   5 1.0 
     1238.4016938000         0.8208956682
      186.2900499200         1.4766449896
       42.2511763460         2.1526124058
       11.6765579320         2.1081722461
        3.5930506482         0.8290999933
s   1 1.0 
        0.4024514736         0.3601183351
s   1 1.0 
        0.1309018267         0.1551027052
p   3 1.0 
        9.4680970621         1.3467645142
        2.0103545142         1.0678070931
        0.5477100471         0.5108735714
p   1 1.0 
        0.1526861379         0.1360471976
d   1 1.0 
        0.8000000000         1.9292013661

  2 0
s   5 1.0 
     1238.4016938000         0.8208956682
      186.2900499200         1.4766449896
       42.2511763460         2.1526124058
       11.6765579320         2.1081722461
        3.5930506482         0.8290999933
s   1 1.0 
        0.4024514736         0.3601183351
s   1 1.0 
        0.1309018267         0.1551027052
p   3 1.0 
        9.4680970621         1.3467645142
        2.0103545142         1.0678070931
        0.5477100471         0.5108735714
p   1 1.0 
        0.1526861379         0.1360471976
d   1 1.0 
        0.8000000000         1.9292013661

  3 0
s   5 1.0 
     1238.4016938000         0.8208956682
      186.2900499200         1.4766449896
       42.2511763460         2.1526124058
       11.6765579320         2.1081722461
        3.5930506482         0.8290999933
s   1 1.0 
        0.4024514736         0.3601183351
s   1 1.0 
        0.1309018267         0.1551027052
p   3 1.0 
        9.4680970621         1.3467645142
        2.0103545142         1.0678070931
        0.5477100471         0.5108735714
p   1 1.0 
        0.1526861379         0.1360471976
d   1 1.0 
        0.8000000000         1.9292013661

  4 0
s   5 1.0 
     1238.4016938000         0.8208956682
      186.2900499200         1.4766449896
       42.2511763460         2.1526124058
       11.6765579320         2.1081722461
        3.5930506482         0.8290999933
s   1 1.0 
        0.4024514736         0.3601183351
s   1 1.0 
        0.1309018267         0.1551027052
p   3 1.0 
        9.4680970621         1.3467645142
        2.0103545142         1.0678070931
        0.5477100471         0.5108735714
p   1 1.0 
        0.1526861379         0.1360471976
d   1 1.0 
        0.8000000000         1.9292013661

  5 0
s   5 1.0 
     1238.4016938000         0.8208956682
      186.2900499200         1.4766449896
       42.2511763460         2.1526124058
       11.6765579320         2.1081722461
        3.5930506482         0.8290999933
s   1 1.0 
        0.4024514736         0.3601183351
s   1 1.0 
        0.1309018267         0.1551027052
p   3 1.0 
        9.4680970621         1.3467645142
        2.0103545142         1.0678070931
        0.5477100471         0.5108735714
p   1 1.0 
        0.1526861379         0.1360471976
d   1 1.0 
        0.8000000000         1.9292013661

  6 0
s   5 1.0 
     1238.4016938000         0.8208956682
      186.2900499200         1.4766449896
       42.2511763460         2.1526124058
       11.6765579320         2.1081722461
        3.5930506482         0.8290999933
s   1 1.0 
        0.4024514736         0.3601183351
s   1 1.0 
        0.1309018267         0.1551027052
p   3 1.0 
        9.4680970621         1.3467645142
        2.0103545142         1.0678070931
        0.5477100471         0.5108735714
p   1 1.0 
        0.1526861379         0.1360471976
d   1 1.0 
        0.8000000000         1.9292013661

  7 0
s   5 1.0 
     1238.4016938000         0.8208956682
      186.2900499200         1.4766449896
       42.2511763460         2.1526124058
       11.6765579320         2.1081722461
        3.5930506482         0.8290999933
s   1 1.0 
        0.4024514736         0.3601183351
s   1 1.0 
        0.1309018267         0.1551027052
p   3 1.0 
        9.4680970621         1.3467645142
        2.0103545142         1.0678070931
        0.5477100471         0.5108735714
p   1 1.0 
        0.1526861379         0.1360471976
d   1 1.0 
        0.8000000000         1.9292013661

  8 0
s   5 1.0 
     1238.4016938000         0.8208956682
      186.2900499200         1.4766449896
       42.2511763460         2.1526124058
       11.6765579320         2.1081722461
        3.5930506482         0.8290999933
s   1 1.0 
        0.4024514736         0.3601183351
s   1 1.0 
        0.1309018267         0.1551027052
p   3 1.0 
        9.4680970621         1.3467645142
        2.0103545142         1.0678070931
        0.5477100471         0.5108735714
p   1 1.0 
        0.1526861379         0.1360471976
d   1 1.0 
        0.8000000000         1.9292013661

  9 0
s   5 1.0 
     1238.4016938000         0.8208956682
      186.2900499200         1.4766449896
       42.2511763460         2.1526124058
       11.6765579320         2.1081722461
        3.5930506482         0.8290999933
s   1 1.0 
        0.4024514736         0.3601183351
s   1 1.0 
        0.1309018267         0.1551027052
p   3 1.0 
        9.4680970621         1.3467645142
        2.0103545142         1.0678070931
        0.5477100471         0.5108735714
p   1 1.0 
        0.1526861379         0.1360471976
d   1 1.0 
        0.8000000000         1.9292013661

 10 0
s   3 1.0 
       13.0107010000         0.1634903809
        1.9622572000         0.2773515510
        0.4445379600         0.3157501452
s   1 1.0 
        0.1219496200         0.1470772262
p   1 1.0 
        0.8000000000         1.0784563492

 11 0
s   3 1.0 
       13.0107010000         0.1634903809
        1.9622572000         0.2773515510
        0.4445379600         0.3157501452
s   1 1.0 
        0.1219496200         0.1470772262
p   1 1.0 
        0.8000000000         1.0784563492

 12 0
s   3 1.0 
       13.0107010000         0.1634903809
        1.9622572000         0.2773515510
        0.4445379600         0.3157501452
s   1 1.0 
        0.1219496200         0.1470772262
p   1 1.0 
        0.8000000000         1.0784563492

 13 0
s   3 1.0 
       13.0107010000         0.1634903809
        1.9622572000         0.2773515510
        0.4445379600         0.3157501452
s   1 1.0 
        0.1219496200         0.1470772262
p   1 1.0 
        0.8000000000         1.0784563492

 14 0
s   3 1.0 
       13.0107010000         0.1634903809
        1.9622572000         0.2773515510
        0.4445379600         0.3157501452
s   1 1.0 
        0.1219496200         0.1470772262
p   1 1.0 
        0.8000000000         1.0784563492

 15 0
s   3 1.0 
       13.0107010000         0.1634903809
        1.9622572000         0.2773515510
        0.4445379600         0.3157501452
s   1 1.0 
        0.1219496200         0.1470772262
p   1 1.0 
        0.8000000000         1.0784563492

 16 0
s   3 1.0 
       13.0107010000         0.1634903809
        1.9622572000         0.2773515510
        0.4445379600         0.3157501452
s   1 1.0 
        0.1219496200         0.1470772262
p   1 1.0 
        0.8000000000         1.0784563492

 17 0
s   3 1.0 
       13.0107010000         0.1634903809
        1.9622572000         0.2773515510
        0.4445379600         0.3157501452
s   1 1.0 
        0.1219496200         0.1470772262
p   1 1.0 
        0.8000000000         1.0784563492

 18 0
s   3 1.0 
       13.0107010000         0.1634903809
        1.9622572000         0.2773515510
        0.4445379600         0.3157501452
s   1 1.0 
        0.1219496200         0.1470772262
p   1 1.0 
        0.8000000000         1.0784563492

 19 0
s   3 1.0 
       13.0107010000         0.1634903809
        1.9622572000         0.2773515510
        0.4445379600         0.3157501452
s   1 1.0 
        0.1219496200         0.1470772262
p   1 1.0 
        0.8000000000         1.0784563492

 20 0
s   3 1.0 
       13.0107010000         0.1634903809
        1.9622572000         0.2773515510
        0.4445379600         0.3157501452
s   1 1.0 
        0.1219496200         0.1470772262
p   1 1.0 
        0.8000000000         1.0784563492

 21 0
s   3 1.0 
       13.0107010000         0.1634903809
        1.9622572000         0.2773515510
        0.4445379600         0.3157501452
s   1 1.0 
        0.1219496200         0.1470772262
p   1 1.0 
        0.8000000000         1.0784563492

[5D]
[7F]
[9G]
[MO]
 Sym=     1a
 Ene= -1.00153553050892E+01
 Spin= Alpha
 Occup= 2.000000
  1       0.000749097375
  2      -0.003486290580
  3       0.017561531992
  4       0.000063235786
  5       0.001861630238
  6      -0.000213512924
  7      -0.001131340695
  8      -0.006091950444
  9       0.002643946403
 10       0.000750700799
 11      -0.000035577251
 12       0.000199667045
 13       0.001250767248
 14      -0.000044033562
 15       0.988521393620
 16       0.054215503503
 17      -0.104742223727
 18      -0.000126216374
 19      -0.001961702612
 20       0.000349867805
 21       0.001949363466
 22       0.018429360889
 23      -0.004900065828
 24      -0.000569308154
 25      -0.000059363869
 26      -0.000015174071
 27      -0.001084814158
 28      -0.000036497204
 29       0.002065485297
 30       0.000565313290
 31       0.040070017059
 32      -0.000050168131
 33      -0.000915160910
 34       0.000145541200
 35      -0.005268548125
 36       0.003418359306
 37       0.011066953372
 38      -0.000137003317
 39       0.000576719889
 40      -0.001056518171
 41       0.000664584800
 42       0.000528032770
 43       0.002580591408
 44       0.007172233628
 45      -0.044478225046
 46       0.000049466701
 47       0.001396449734
 48      -0.000164615663
 49       0.000461978477
 50      -0.017447185490
 51      -0.000242892329
 52      -0.000013727749
 53       0.000113441011
 54      -0.000041766561
 55       0.000162379464
 56       0.000027160477
 57       0.002043226402
 58      -0.000544237914
 59       0.046206255502
 60       0.000021313800
 61      -0.000705489225
 62      -0.000157618550
 63      -0.007527670835
 64       0.004888097288
 65      -0.012320821294
 66      -0.000211088190
 67      -0.000597813599
 68       0.000945751823
 69       0.000378558820
 70       0.000532156995
 71       0.000011469914
 72      -0.000503588519
 73      -0.009022411620
 74      -0.000097971395
 75      -0.000054341879
 76       0.000290794484
 77       0.001094037118
 78      -0.003164289429
 79       0.001137731283
 80       0.000038493322
 81       0.000133624589
 82      -0.000101332868
 83       0.000050151789
 84       0.000007750050
 85      -0.000439050927
 86      -0.001561320708
 87       0.011658979373
 88      -0.000139073433
 89      -0.000056288722
 90       0.000299265648
 91       0.002490825646
 92      -0.003537294030
 93      -0.005158401985
 94      -0.000033624934
 95      -0.000068789587
 96       0.000071718588
 97      -0.000168559445
 98      -0.000040716460
 99       0.000011086601
100      -0.000504338327
101      -0.009016897767
102      -0.000159526035
103      -0.000055553158
104       0.000262178810
105      -0.001468477783
106      -0.003213726255
107      -0.000070034849
108      -0.000081785258
109       0.000017574843
110      -0.000070638565
111       0.000116883502
112       0.000081036871
113       0.002050341966
114      -0.000546656414
115       0.046227504008
116       0.000130034623
117      -0.000703668802
118      -0.000106338064
119       0.014132221803
120       0.005322149385
121      -0.002157214776
122       0.000673820480
123       0.000265162836
124       0.000219190408
125      -0.000069362613
126      -0.001070443009
127      -0.000239872012
128       0.000381508443
129      -0.000067459285
130      -0.000370063119
131      -0.000043724170
132      -0.000241250096
133       0.000376452049
134       0.000087913667
135      -0.000366452141
136       0.000030190729
137      -0.000490796864
138      -0.002248448994
139       0.000000699775
140      -0.000112231785
141       0.000003856271
142      -0.000977102350
143      -0.001902187914
144       0.000083836538
145       0.000064698930
146      -0.000163557256
147      -0.000976766933
148      -0.001900456904
149       0.000070274931
150       0.000063934061
151      -0.000170105190
152      -0.000418236359
153      -0.000333293859
154      -0.000022607820
155       0.000098079404
156       0.000043447925
157      -0.001251036074
158      -0.002307124995
159       0.000089937901
160      -0.000119690999
161       0.000338102559
162      -0.000062736874
163       0.000226549914
164       0.000013694111
165       0.000121128939
166       0.000032382747
167       0.000370426239
168       0.001026676068
169       0.000026469964
170       0.000211262410
171      -0.000064887588
172      -0.000572620579
173      -0.000225706497
174      -0.000009545322
175       0.000015246471
176       0.000019021109
177      -0.000062210863
178       0.000227554179
179      -0.000037574014
180       0.000120293686
181       0.000008395598
182      -0.001251044583
183      -0.002307220319
184      -0.000313781443
185      -0.000127663772
186       0.000148880912
 Sym=     1a
 Ene= -1.00063480362893E+01
 Spin= Alpha
 Occup= 2.000000
  1       0.002270669496
  2       0.001162186548
  3       0.007576081691
  4      -0.000103971715
  5      -0.000566926469
  6       0.000261624736
  7      -0.000167993381
  8      -0.002779617966
  9       0.000408668880
 10      -0.000040911379
 11      -0.000002466030
 12      -0.000292521371
 13      -0.000097305237
 14       0.000125292603
 15       0.003216485427
 16      -0.003431768233
 17      -0.013438392755
 18      -0.000042509967
 19       0.001222307408
 20       0.000077786556
 21       0.003579608244
 22      -0.008406805575
 23      -0.007779525311
 24      -0.000178262471
 25       0.000383488700
 26      -0.000502855719
 27       0.000265645480
 28       0.000220554332
 29      -0.002304413351
 30      -0.000795463254
 31      -0.019315382361
 32       0.000284733185
 33      -0.000309703184
 34      -0.000611062634
 35       0.003087031454
 36       0.000588516761
 37      -0.006521397973
 38      -0.000289379987
 39      -0.000119349226
 40      -0.000357995611
 41      -0.000672272340
 42       0.000139856761
 43      -0.238925150836
 44      -0.015594572391
 45       0.002793501651
 46       0.000040318145
 47      -0.000718781991
 48      -0.000019801872
 49       0.003077651534
 50       0.006968748400
 51      -0.007368187057
 52       0.000110062916
 53       0.000452593407
 54       0.000761653417
 55       0.000942341644
 56      -0.000282178990
 57      -0.694443453879
 58      -0.039294712089
 59       0.044661180822
 60       0.001227792830
 61      -0.000204801786
 62       0.001099299772
 63      -0.012630190208
 64       0.001468563574
 65       0.001219678821
 66       0.000531756292
 67      -0.000362911875
 68       0.000247256733
 69      -0.001753332245
 70       0.000041598079
 71      -0.002739118074
 72       0.002147462840
 73      -0.017070937518
 74       0.000291815113
 75       0.000353239331
 76      -0.000412432083
 77      -0.002324483528
 78      -0.001980680551
 79       0.009283930994
 80      -0.000069626207
 81      -0.000946711792
 82      -0.000125936112
 83       0.000433371004
 84       0.000142684325
 85       0.001612370946
 86       0.002122641384
 87       0.000754719533
 88       0.000158216246
 89      -0.000437617686
 90      -0.000293042215
 91       0.000322509067
 92       0.002363260463
 93      -0.000726775482
 94       0.000024181261
 95       0.000059603531
 96       0.000054971989
 97       0.000145466778
 98      -0.000020953551
 99      -0.002762368592
100       0.002037014846
101      -0.015454147471
102       0.000110254604
103       0.000346961948
104      -0.000448020634
105      -0.005052919529
106      -0.001989101778
107       0.007555489022
108       0.000983550631
109       0.000128793832
110      -0.000158538006
111      -0.000199121039
112      -0.000004356807
113      -0.661429902727
114      -0.037576216732
115       0.041841215232
116      -0.001602503067
117      -0.000261599217
118      -0.000256004815
119       0.006359519568
120       0.001853722442
121       0.009963939253
122      -0.000520977167
123      -0.001356081440
124       0.000049311249
125      -0.001105372962
126      -0.000311224285
127      -0.000175428565
128      -0.000567855892
129       0.000099661938
130      -0.000001090831
131       0.000032476594
132      -0.000202428921
133      -0.000612364002
134      -0.000086771500
135       0.000006426000
136      -0.000064871970
137       0.000231303906
138       0.000148052368
139      -0.000018987334
140      -0.000299571525
141       0.000064616963
142       0.000560073793
143       0.000797251585
144       0.000029483254
145       0.000016562897
146       0.000147333481
147       0.000531387309
148       0.000782262872
149      -0.000122616375
150       0.000013248198
151       0.000060467296
152       0.002800874138
153       0.001563435684
154      -0.000150954542
155       0.000901765621
156       0.000306596227
157       0.003645838297
158      -0.003652859216
159      -0.002044466733
160      -0.000120366983
161      -0.000218713538
162      -0.000324529132
163      -0.000804919244
164      -0.000038798138
165      -0.000093803406
166      -0.000099350977
167       0.000080680897
168      -0.000046797696
169      -0.000046729669
170      -0.000170149002
171       0.000108147375
172       0.000095924350
173      -0.001462681553
174       0.000144562859
175      -0.000088878009
176      -0.000303489388
177      -0.000331630440
178      -0.000808737753
179       0.000096060596
180      -0.000076628013
181      -0.000040678385
182       0.003494621822
183      -0.003501675320
184       0.001433249246
185      -0.000052275236
186       0.001374716415
 Sym=     1a
 Ene= -1.00062850329449E+01
 Spin= Alpha
 Occup= 2.000000
  1      -0.000051856807
  2      -0.000028650542
  3      -0.000161295634
  4       0.000281941388
  5       0.000018917752
  6       0.000125732204
  7      -0.001530370813
  8       0.000018912936
  9      -0.000750249813
 10       0.000067085139
 11       0.000064896108
 12      -0.000127706007
 13      -0.000024827317
 14      -0.000293088380
 15      -0.000087408630
 16       0.000096555384
 17       0.000221651925
 18       0.000650493815
 19      -0.000019069281
 20       0.000302096057
 21      -0.008254346775
 22       0.000048025747
 23      -0.003634958304
 24       0.000417662687
 25       0.000397835774
 26      -0.000467218560
 27      -0.000203432949
 28      -0.001050393007
 29       0.000066418995
 30       0.000019447102
 31       0.000563997002
 32      -0.000297405437
 33       0.000004187144
 34      -0.000122444761
 35       0.001113268798
 36       0.000004589590
 37       0.000749280765
 38      -0.000483463930
 39      -0.000464229679
 40      -0.000008054201
 41       0.000300224794
 42      -0.000015112861
 43       0.008276949800
 44       0.000512615757
 45      -0.000317432103
 46       0.000563725812
 47       0.000032601100
 48       0.000267044368
 49      -0.008509713408
 50      -0.000408521103
 51      -0.003792753460
 52       0.000386055916
 53       0.000353716503
 54       0.000544916519
 55      -0.000300167340
 56       0.001179463627
 57      -0.683350790265
 58      -0.035477435033
 59       0.058609574475
 60      -0.000020071488
 61       0.000023733647
 62       0.000522002813
 63      -0.017632308065
 64      -0.000579762330
 65      -0.004719159579
 66       0.000182321332
 67      -0.000066374751
 68      -0.000003908960
 69      -0.000610576521
 70      -0.000045327700
 71       0.000564475670
 72       0.002274352053
 73      -0.033749443903
 74       0.000600926018
 75       0.000056757095
 76      -0.000757000059
 77       0.004214039336
 78      -0.000788432975
 79       0.011218104413
 80       0.000621081498
 81      -0.000763843446
 82      -0.000042176760
 83       0.000258103422
 84       0.000084000434
 85      -0.000043833224
 86      -0.000048954757
 87      -0.000033361153
 88       0.000413783681
 89       0.000018327681
 90       0.000202809508
 91       0.000940062078
 92      -0.000024221682
 93       0.000472863098
 94      -0.000024959292
 95      -0.000023629689
 96      -0.000025189994
 97       0.000012332460
 98      -0.000047978343
 99      -0.000446786918
100      -0.002383430111
101       0.034545093061
102      -0.000203857251
103      -0.000065129008
104       0.000968779494
105       0.011551285752
106       0.001198307270
107      -0.004292628903
108      -0.000900568931
109       0.000533528572
110       0.000093323357
111      -0.000118302441
112       0.000020380730
113       0.714446509264
114       0.037248251025
115      -0.060448687396
116       0.000465768649
117      -0.000001248863
118      -0.000337331554
119      -0.015161033827
120      -0.000181141128
121      -0.011064779089
122       0.000264495113
123       0.000532704552
124      -0.000008586304
125       0.000421626389
126       0.000019643572
127       0.000611363260
128       0.001210555380
129      -0.000117629868
130      -0.000247601767
131       0.000161939825
132      -0.000602904404
133      -0.001195144417
134       0.000046209474
135       0.000247149884
136      -0.000194806781
137      -0.000006115217
138       0.000015296611
139       0.000190802083
140       0.000009634263
141       0.000088350372
142       0.000582427519
143       0.000293759292
144      -0.000036559613
145       0.000010693066
146       0.000306632568
147      -0.000613389918
148      -0.000338821176
149       0.000218822498
150      -0.000008383427
151      -0.000228066555
152      -0.000079924137
153      -0.000022035566
154       0.000371217832
155      -0.000020935955
156       0.000166333789
157       0.003108356537
158      -0.003116429698
159      -0.001523272812
160      -0.000009442208
161       0.000100982684
162       0.000161494957
163       0.000103890806
164      -0.000231315471
165      -0.000306520504
166      -0.000014750296
167      -0.000002465846
168      -0.000000295612
169       0.000025701430
170       0.000003641742
171       0.000008780516
172      -0.000000708774
173       0.000023493906
174       0.000009234977
175       0.000002598271
176       0.000012465221
177      -0.000145890695
178      -0.000068342969
179      -0.000173576612
180       0.000303329494
181      -0.000170860752
182      -0.003279236037
183       0.003265390043
184      -0.000963485862
185      -0.000035810140
186      -0.001300386262
 Sym=     1a
 Ene= -1.00061675454202E+01
 Spin= Alpha
 Occup= 2.000000
  1       0.000445569697
  2      -0.000229620257
  3       0.006658989007
  4      -0.000005527277
  5      -0.000194259859
  6       0.000017836980
  7       0.000071967323
  8      -0.002389813200
  9      -0.000034611107
 10      -0.000031625841
 11      -0.000009720535
 12      -0.000010519830
 13      -0.000070405544
 14       0.000003008674
 15      -0.002406702988
 16       0.005836773819
 17      -0.035214571581
 18       0.000047365680
 19      -0.001175092203
 20      -0.000055311557
 21      -0.000230254954
 22       0.005300125612
 23       0.000325632202
 24      -0.000079513783
 25       0.000160476074
 26      -0.000198266934
 27       0.000122333134
 28       0.000102916077
 29       0.004375219185
 30       0.000707817458
 31       0.034934512025
 32       0.000021150033
 33       0.000820357840
 34      -0.000077464994
 35      -0.004453403503
 36      -0.002814831505
 37       0.009589578653
 38      -0.000338712972
 39       0.000619726896
 40       0.001017397705
 41       0.000488591019
 42      -0.000452737368
 43       0.959051925283
 44       0.052755353506
 45      -0.092107066605
 46      -0.000157125311
 47       0.001554154876
 48       0.000265421707
 49       0.001580568207
 50      -0.028568186252
 51      -0.002098687076
 52      -0.001099693088
 53       0.000029701357
 54      -0.000043017100
 55      -0.001852564021
 56      -0.000056354415
 57      -0.166957034568
 58      -0.008254346972
 59       0.040597823697
 60       0.000130141652
 61       0.000497162611
 62      -0.000112077945
 63      -0.004602093371
 64      -0.004701761796
 65      -0.011669320348
 66      -0.000024451255
 67      -0.000564493304
 68      -0.000838713520
 69       0.000119835945
 70      -0.000507847137
 71      -0.002382141395
 72      -0.001900154038
 73       0.002817178479
 74       0.000148310301
 75       0.000006741156
 76       0.000228272640
 77      -0.000561934006
 78       0.000885683044
 79      -0.000546700581
 80       0.000064497944
 81      -0.000180009006
 82       0.000259990693
 83       0.000052344348
 84      -0.000003219540
 85      -0.000697195347
 86       0.000375098999
 87      -0.005033939808
 88       0.000004145882
 89       0.000027216088
 90      -0.000013150093
 91      -0.001169896908
 92       0.001329802322
 93       0.002427562903
 94      -0.000106736352
 95       0.000137684258
 96      -0.000028378497
 97       0.000041715626
 98       0.000016411753
 99      -0.002379163091
100      -0.001886515035
101       0.002609782743
102      -0.000269392049
103      -0.000001231021
104       0.000026510983
105       0.000681650727
106       0.000905629229
107       0.000094149378
108       0.000187637779
109      -0.000067624212
110       0.000170591977
111      -0.000007586495
112      -0.000200046698
113      -0.170796066726
114      -0.008454987333
115       0.040934628225
116      -0.000015034428
117       0.000493896401
118      -0.000177834452
119       0.012151641009
120      -0.004371706492
121      -0.003775114879
122       0.000541498063
123      -0.000037289511
124      -0.000134852153
125      -0.000267855842
126       0.000953362255
127      -0.000146106716
128      -0.000575715977
129       0.000044818343
130      -0.000019188446
131       0.000021671361
132      -0.000142171669
133      -0.000567371781
134      -0.000044981163
135      -0.000022768967
136      -0.000019092153
137      -0.000146874945
138      -0.000099016908
139      -0.000009493237
140      -0.000018531680
141       0.000019546447
142      -0.000841125346
143      -0.001637905737
144       0.000093617741
145      -0.000112230788
146      -0.000123039378
147      -0.000837409512
148      -0.001635320014
149       0.000037431968
150      -0.000113504429
151      -0.000147554544
152      -0.004966470419
153       0.005260543202
154      -0.000123727446
155      -0.002495441100
156       0.000365262155
157      -0.000461412890
158      -0.003320604430
159      -0.000381090410
160       0.000035777366
161       0.000296911254
162      -0.000025521573
163      -0.000285126071
164      -0.000090356060
165       0.000132763722
166       0.000063924360
167      -0.000112170973
168      -0.000432549786
169       0.000026907593
170      -0.000112680911
171      -0.000052727918
172       0.000422429832
173       0.000498092199
174       0.000073932204
175      -0.000090945276
176      -0.000153953900
177      -0.000023997535
178      -0.000283823543
179       0.000005437642
180       0.000132826045
181       0.000109088674
182      -0.000443540642
183      -0.003336817258
184       0.000018483567
185       0.000044178609
186       0.000489051028
 Sym=     1a
 Ene= -9.99920446638321E+00
 Spin= Alpha
 Occup= 2.000000
  1       0.002445629882
  2       0.000510775911
  3       0.000837606440
  4      -0.000068371852
  5      -0.000015943286
  6       0.000143994486
  7       0.000080256810
  8      -0.001623260474
  9      -0.000079037374
 10       0.000004121999
 11       0.000019110570
 12      -0.000139422453
 13       0.000031794333
 14       0.000067031580
 15      -0.000538554406
 16       0.000090692873
 17       0.016653148269
 18      -0.000289560008
 19       0.000128738266
 20       0.000611748255
 21       0.000524228415
 22      -0.008926466182
 23      -0.000754754362
 24       0.000011719556
 25       0.000009823116
 26       0.000003012880
 27       0.000037070308
 28       0.000000076333
 29      -0.000468543636
 30       0.000224546834
 31      -0.013025560932
 32       0.000095360915
 33      -0.000038293853
 34      -0.000201305013
 35       0.002044137575
 36      -0.001059934721
 37      -0.004305354501
 38      -0.000056157826
 39       0.000029095359
 40      -0.000062862227
 41      -0.000052236870
 42       0.000027875840
 43      -0.001163340976
 44      -0.000140883478
 45       0.015200207668