
                                 *****************
                                 * O   R   C   A *
                                 *****************

                                            #,
                                            ###
                                            ####
                                            #####
                                            ######
                                           ########,
                                     ,,################,,,,,
                               ,,#################################,,
                          ,,##########################################,,
                       ,#########################################, ''#####,
                    ,#############################################,,   '####,
                  ,##################################################,,,,####,
                ,###########''''           ''''###############################
              ,#####''   ,,,,##########,,,,          '''####'''          '####
            ,##' ,,,,###########################,,,                        '##
           ' ,,###''''                  '''############,,,
         ,,##''                                '''############,,,,        ,,,,,,###''
      ,#''                                            '''#######################'''
     '                                                          ''''####''''
             ,#######,   #######,   ,#######,      ##
            ,#'     '#,  ##    ##  ,#'     '#,    #''#        ,####,   ,####,
            ##       ##  ##   ,#'  ##            #'  '#       #'       #'  '#
            ##       ##  #######   ##           ,######,      #####,   #    #
            '#,     ,#'  ##    ##  '#,     ,#' ,#      #,     #,   #   #,  ,#
             '#######'   ##     ##  '#######'  #'      '#     '####' # '####'

---------------------------------
CARTESIAN COORDINATES (ANGSTROEM)
---------------------------------
  N      0.030923    0.807190    4.486090
  O      0.751579    2.398382    0.398439
  C      0.251069    0.734786    3.333559
  N     -1.324259   -1.255675   -0.837338
  N     -1.884337    0.501211    1.383029
  O      2.511416    1.928209    1.792527
  O      2.723670    4.658544    2.763125
  C      1.255915    1.752886    1.313724
  C      3.902236   -0.216879   -2.175529
  C      1.436946   -3.887791    1.671466
  C      2.891227    0.105780   -1.315690
  C      1.964193   -2.847283    0.907557
  C     -0.338462   -0.751979   -0.050230
  C     -0.629562    0.146360    1.064639
  C     -4.950217   -1.008243   -0.951560
  C     -5.236288   -0.184777    0.119974
  C     -3.631433   -1.401523   -1.243633
  C     -4.178303    0.279886    0.943683
  C     -2.593796   -0.884565   -0.484819
  C     -2.862429   -0.035402    0.629805
  N      0.975861   -1.082592   -0.413449
  C      2.334507    6.032624    3.064577
  C      0.534758    0.566622    1.907698
  C      1.443904   -0.296951   -1.568923
  C      1.343147   -2.515704   -0.440919
  C      3.333273    2.939483    1.197854
  C      2.872312    4.383037    1.344616
  H      4.899761    0.190047   -2.039541
  H      3.722613   -0.875613   -3.013623
  H      0.566850   -4.417564    1.288835
  H      1.837300   -4.179618    2.630116
  H      3.117502    0.730289   -0.430828
  H      2.810379   -2.327145    1.338740
  H     -5.744339   -1.184623   -1.671877
  H     -6.255521    0.145092    0.300887
  H     -3.453561   -2.051888   -2.093133
  H     -4.400985    0.928136    1.808920
  H      2.497434    6.761844    2.265018
  H      1.245328    6.046002    3.334713
  H      2.884960    6.459362    3.905770
  H      1.245098   -0.227997    1.912682
  H      0.848822    0.618799   -1.637906
  H      1.334729   -0.871197   -2.485475
  H      0.432451   -3.098358   -0.575542
  H      2.048249   -2.757679   -1.267309
  H      4.296311    2.830091    1.678199
  H      3.517290    2.716710    0.108664
  H      1.933839    4.569946    0.808191
  H      3.617315    5.059401    0.923900

---------------
SCF CONVERGENCE
---------------

  Last Energy change         ...    9.3337e-09  Tolerance :   1.0000e-08
  Last MAX-Density change    ...    1.4386e-02  Tolerance :   1.0000e-07
  Last RMS-Density change    ...    2.5932e-05  Tolerance :   5.0000e-09
  Last DIIS Error            ...    1.8221e-05  Tolerance :   5.0000e-07


----------------
ORBITAL ENERGIES
----------------

  NO   OCC          E(Eh)            E(eV)
  89   2.0000      -0.402811       -10.9610
  90   2.0000      -0.382839       -10.4176
  91   2.0000      -0.370366       -10.0782
  92   2.0000      -0.367588       -10.0026
  93   2.0000      -0.361508        -9.8371
  94   2.0000      -0.349194        -9.5020
  95   2.0000      -0.340099        -9.2546
  96   2.0000      -0.329493        -8.9660
  97   0.0000      -0.022592        -0.6148
  98   0.0000       0.028396         0.7727
  99   0.0000       0.031660         0.8615
 100   0.0000       0.036214         0.9854
 101   0.0000       0.040034         1.0894
 102   0.0000       0.043732         1.1900
 103   0.0000       0.047041         1.2801
 104   0.0000       0.050871         1.3843

-----------------------
MULLIKEN ATOMIC CHARGES
-----------------------
   0 N :   -0.560555
   1 O :   -0.622337
   2 C :   -0.215845
   3 N :   -0.727295
   4 N :   -0.519522
   5 O :   -0.289305
   6 O :   -0.328209
   7 C :    0.236766
   8 C :   -0.972997
   9 C :   -0.875992
  10 C :    0.213635
  11 C :   -0.049821
  12 C :    0.238140
  13 C :   -0.085265
  14 C :   -0.468031
  15 C :   -0.593266
  16 C :   -0.446594
  17 C :   -0.384315
  18 C :    0.159905
  19 C :    0.132615
  20 N :    0.831281
  21 C :   -0.768190
  22 C :    1.598422
  23 C :   -0.911999
  24 C :   -0.617085
  25 C :   -0.319408
  26 C :   -0.576318
  27 H :    0.298603
  28 H :    0.297209
  29 H :    0.250773
  30 H :    0.291510
  31 H :    0.132891
  32 H :    0.356045
  33 H :    0.348259
  34 H :    0.380893
  35 H :    0.449648
  36 H :    0.422997
  37 H :    0.335617
  38 H :    0.257289
  39 H :    0.255591
  40 H :   -0.176043
  41 H :    0.384757
  42 H :    0.466687
  43 H :    0.334059
  44 H :    0.360902
  45 H :    0.351184
  46 H :    0.298282
  47 H :    0.355754
  48 H :    0.468677
Sum of atomic charges:   -0.0000000

----------------------
LOEWDIN ATOMIC CHARGES
----------------------
   0 N :    0.168557
   1 O :    0.122308
   2 C :   -0.139904
   3 N :    0.219939
   4 N :    0.214513
   5 O :    0.020678
   6 O :   -0.186840
   7 C :   -0.405836
   8 C :    0.019612
   9 C :    0.022747
  10 C :   -0.130966
  11 C :   -0.137096
  12 C :   -0.201227
  13 C :   -0.117990
  14 C :   -0.082763
  15 C :   -0.072895
  16 C :   -0.012803
  17 C :    0.000164
  18 C :   -0.215507
  19 C :   -0.230534
  20 N :   -0.125220
  21 C :   -0.088565
  22 C :   -0.155448
  23 C :   -0.166711
  24 C :   -0.165639
  25 C :   -0.135038
  26 C :   -0.186299
  27 H :    0.048101
  28 H :    0.049817
  29 H :    0.049042
  30 H :    0.041538
  31 H :    0.077999
  32 H :    0.089259
  33 H :    0.104182
  34 H :    0.103158
  35 H :    0.112781
  36 H :    0.123346
  37 H :    0.077572
  38 H :    0.096871
  39 H :    0.076979
  40 H :    0.132035
  41 H :    0.122136
  42 H :    0.117593
  43 H :    0.105224
  44 H :    0.130866
  45 H :    0.130538
  46 H :    0.134965
  47 H :    0.120388
  48 H :    0.124373

---------------------------------
LOEWDIN BOND ORDERS (THRESH 0.050000)
---------------------------------
B(  0-N ,  2-C ) :   3.2642 B(  0-N , 22-C ) :   0.3833 B(  1-O ,  5-O ) :   0.4055
B(  1-O ,  7-C ) :   2.5478 B(  1-O , 13-C ) :   0.1166 B(  1-O , 22-C ) :   0.3082
B(  1-O , 25-C ) :   0.1106 B(  1-O , 26-C ) :   0.0757 B(  1-O , 47-H ) :   0.0560
B(  2-C ,  4-N ) :   0.0826 B(  2-C ,  5-O ) :   0.0689 B(  2-C ,  7-C ) :   0.2215
B(  2-C , 13-C ) :   0.2225 B(  2-C , 22-C ) :   1.1789 B(  2-C , 40-H ) :   0.1624
B(  3-N ,  4-N ) :   0.1105 B(  3-N , 12-C ) :   1.6916 B(  3-N , 13-C ) :   0.2674
B(  3-N , 16-C ) :   0.3350 B(  3-N , 18-C ) :   1.5719 B(  3-N , 19-C ) :   0.2529
B(  3-N , 20-N ) :   0.2851 B(  3-N , 23-C ) :   0.0635 B(  3-N , 24-C ) :   0.0771
B(  4-N , 12-C ) :   0.2748 B(  4-N , 13-C ) :   1.7487 B(  4-N , 17-C ) :   0.3344
B(  4-N , 18-C ) :   0.2598 B(  4-N , 19-C ) :   1.6044 B(  4-N , 22-C ) :   0.2601
B(  5-O ,  6-O ) :   0.0664 B(  5-O ,  7-C ) :   1.7043 B(  5-O , 22-C ) :   0.2515
B(  5-O , 25-C ) :   1.5542 B(  5-O , 26-C ) :   0.2183 B(  5-O , 45-H ) :   0.1608
B(  5-O , 46-H ) :   0.1389 B(  6-O , 21-C ) :   1.7380 B(  6-O , 25-C ) :   0.2670
B(  6-O , 26-C ) :   1.6593 B(  6-O , 37-H ) :   0.1550 B(  6-O , 38-H ) :   0.1699
B(  6-O , 39-H ) :   0.1653 B(  6-O , 47-H ) :   0.1396 B(  6-O , 48-H ) :   0.1463
B(  7-C , 13-C ) :   0.1965 B(  7-C , 22-C ) :   0.9789 B(  7-C , 25-C ) :   0.2579
B(  7-C , 26-C ) :   0.0558 B(  7-C , 40-H ) :   0.1247 B(  8-C , 10-C ) :   1.9967
B(  8-C , 23-C ) :   0.3418 B(  8-C , 27-H ) :   0.9063 B(  8-C , 28-H ) :   0.8897
B(  8-C , 31-H ) :   0.2117 B(  9-C , 11-C ) :   1.9671 B(  9-C , 24-C ) :   0.3554
B(  9-C , 29-H ) :   0.8889 B(  9-C , 30-H ) :   0.9197 B(  9-C , 32-H ) :   0.2225
B(  9-C , 43-H ) :   0.0557 B( 10-C , 20-N ) :   0.2411 B( 10-C , 23-C ) :   1.2067
B( 10-C , 24-C ) :   0.0511 B( 10-C , 27-H ) :   0.2464 B( 10-C , 28-H ) :   0.2410
B( 10-C , 31-H ) :   0.7593 B( 10-C , 41-H ) :   0.1439 B( 10-C , 42-H ) :   0.1391
B( 11-C , 20-N ) :   0.2475 B( 11-C , 24-C ) :   1.2324 B( 11-C , 29-H ) :   0.2359
B( 11-C , 30-H ) :   0.2375 B( 11-C , 32-H ) :   0.8218 B( 11-C , 43-H ) :   0.1440
B( 11-C , 44-H ) :   0.1419 B( 12-C , 13-C ) :   1.0829 B( 12-C , 16-C ) :   0.0567
B( 12-C , 18-C ) :   0.3655 B( 12-C , 19-C ) :   0.1358 B( 12-C , 20-N ) :   1.3078
B( 12-C , 22-C ) :   0.2046 B( 12-C , 23-C ) :   0.2538 B( 12-C , 24-C ) :   0.2265
B( 12-C , 41-H ) :   0.0535 B( 13-C , 17-C ) :   0.0585 B( 13-C , 18-C ) :   0.1373
B( 13-C , 19-C ) :   0.3857 B( 13-C , 20-N ) :   0.1983 B( 13-C , 22-C ) :   1.0335
B( 13-C , 40-H ) :   0.1229 B( 14-C , 15-C ) :   1.5387 B( 14-C , 16-C ) :   1.5261
B( 14-C , 17-C ) :   0.3675 B( 14-C , 18-C ) :   0.3478 B( 14-C , 19-C ) :   0.1412
B( 14-C , 33-H ) :   0.7977 B( 14-C , 34-H ) :   0.1837 B( 14-C , 35-H ) :   0.1800
B( 15-C , 16-C ) :   0.3610 B( 15-C , 17-C ) :   1.5147 B( 15-C , 18-C ) :   0.1406
B( 15-C , 19-C ) :   0.3369 B( 15-C , 33-H ) :   0.1875 B( 15-C , 34-H ) :   0.8033
B( 15-C , 36-H ) :   0.1731 B( 16-C , 17-C ) :   0.1651 B( 16-C , 18-C ) :   1.3699
B( 16-C , 19-C ) :   0.2707 B( 16-C , 33-H ) :   0.1812 B( 16-C , 35-H ) :   0.7832
B( 17-C , 18-C ) :   0.2745 B( 17-C , 19-C ) :   1.3632 B( 17-C , 34-H ) :   0.1807
B( 17-C , 36-H ) :   0.7773 B( 18-C , 19-C ) :   1.1352 B( 18-C , 35-H ) :   0.1707
B( 19-C , 36-H ) :   0.1703 B( 20-N , 22-C ) :   0.0810 B( 20-N , 23-C ) :   1.2892
B( 20-N , 24-C ) :   1.2787 B( 20-N , 41-H ) :   0.1247 B( 20-N , 42-H ) :   0.1298
B( 20-N , 43-H ) :   0.1294 B( 20-N , 44-H ) :   0.1216 B( 21-C , 26-C ) :   0.2795
B( 21-C , 37-H ) :   0.8558 B( 21-C , 38-H ) :   0.8549 B( 21-C , 39-H ) :   0.8807
B( 22-C , 40-H ) :   0.6585 B( 23-C , 24-C ) :   0.2272 B( 23-C , 31-H ) :   0.1365
B( 23-C , 41-H ) :   0.7364 B( 23-C , 42-H ) :   0.7478 B( 24-C , 29-H ) :   0.0556
B( 24-C , 32-H ) :   0.1393 B( 24-C , 43-H ) :   0.7421 B( 24-C , 44-H ) :   0.7449
B( 25-C , 26-C ) :   1.1795 B( 25-C , 45-H ) :   0.7660 B( 25-C , 46-H ) :   0.7261
B( 25-C , 47-H ) :   0.1317 B( 25-C , 48-H ) :   0.1401 B( 26-C , 37-H ) :   0.0519
B( 26-C , 45-H ) :   0.1426 B( 26-C , 46-H ) :   0.1339 B( 26-C , 47-H ) :   0.7527
B( 26-C , 48-H ) :   0.7605 B( 27-H , 28-H ) :   0.1225 B( 29-H , 30-H ) :   0.1225
B( 37-H , 38-H ) :   0.1091 B( 37-H , 39-H ) :   0.1183 B( 38-H , 39-H ) :   0.1134
B( 41-H , 42-H ) :   0.0888 B( 43-H , 44-H ) :   0.0889 B( 45-H , 46-H ) :   0.0905
B( 47-H , 48-H ) :   0.0917

                      *****************************
                      * MAYER POPULATION ANALYSIS *
                      *****************************

  NA   - Mulliken gross atomic population
  ZA   - Total nuclear charge
  QA   - Mulliken gross atomic charge
  VA   - Mayer's total valence
  BVA  - Mayer's bonded valence
  FA   - Mayer's free valence

  ATOM       NA         ZA         QA         VA         BVA        FA
  0 N      7.5606     7.0000    -0.5606     1.8457     1.8457    -0.0000
  1 O      8.6223     8.0000    -0.6223     1.6523     1.6523    -0.0000
  2 C      6.2158     6.0000    -0.2158     2.0962     2.0962    -0.0000
  3 N      7.7273     7.0000    -0.7273     1.5238     1.5238     0.0000
  4 N      7.5195     7.0000    -0.5195     1.5346     1.5346    -0.0000
  5 O      8.2893     8.0000    -0.2893     1.7119     1.7119    -0.0000
  6 O      8.3282     8.0000    -0.3282     1.5632     1.5632     0.0000
  7 C      5.7632     6.0000     0.2368     3.1471     3.1471    -0.0000
  8 C      6.9730     6.0000    -0.9730     3.4449     3.4449     0.0000
  9 C      6.8760     6.0000    -0.8760     3.6337     3.6337    -0.0000
 10 C      5.7864     6.0000     0.2136     2.2390     2.2390    -0.0000
 11 C      6.0498     6.0000    -0.0498     2.9117     2.9117     0.0000
 12 C      5.7619     6.0000     0.2381     2.7203     2.7203    -0.0000
 13 C      6.0853     6.0000    -0.0853     1.3211     1.3211    -0.0000
 14 C      6.4680     6.0000    -0.4680     3.5222     3.5222    -0.0000
 15 C      6.5933     6.0000    -0.5933     3.4569     3.4569     0.0000
 16 C      6.4466     6.0000    -0.4466     3.3714     3.3714    -0.0000
 17 C      6.3843     6.0000    -0.3843     3.4159     3.4159     0.0000
 18 C      5.8401     6.0000     0.1599     2.7558     2.7558    -0.0000
 19 C      5.8674     6.0000     0.1326     3.0603     3.0603    -0.0000
 20 N      6.1687     7.0000     0.8313     2.3511     2.3511    -0.0000
 21 C      6.7682     6.0000    -0.7682     3.6620     3.6620     0.0000
 22 C      4.4016     6.0000     1.5984     2.9606     2.9606    -0.0000
 23 C      6.9120     6.0000    -0.9120     2.9632     2.9632     0.0000
 24 C      6.6171     6.0000    -0.6171     3.1649     3.1649    -0.0000
 25 C      6.3194     6.0000    -0.3194     3.0936     3.0936    -0.0000
 26 C      6.5763     6.0000    -0.5763     3.1497     3.1497     0.0000
 27 H      0.7014     1.0000     0.2986     0.9799     0.9799     0.0000
 28 H      0.7028     1.0000     0.2972     0.9920     0.9920     0.0000
 29 H      0.7492     1.0000     0.2508     0.9922     0.9922     0.0000
 30 H      0.7085     1.0000     0.2915     0.9967     0.9967    -0.0000
 31 H      0.8671     1.0000     0.1329     1.0527     1.0527    -0.0000
 32 H      0.6440     1.0000     0.3560     0.7709     0.7709     0.0000
 33 H      0.6517     1.0000     0.3483     0.8761     0.8761    -0.0000
 34 H      0.6191     1.0000     0.3809     0.8373     0.8373    -0.0000
 35 H      0.5504     1.0000     0.4496     0.7668     0.7668    -0.0000
 36 H      0.5770     1.0000     0.4230     0.7929     0.7929     0.0000
 37 H      0.6644     1.0000     0.3356     0.8795     0.8795     0.0000
 38 H      0.7427     1.0000     0.2573     1.0124     1.0124     0.0000
 39 H      0.7444     1.0000     0.2556     1.0006     1.0006    -0.0000
 40 H      1.1760     1.0000    -0.1760     0.9379     0.9379    -0.0000
 41 H      0.6152     1.0000     0.3848     0.9858     0.9858     0.0000
 42 H      0.5333     1.0000     0.4667     0.8228     0.8228     0.0000
 43 H      0.6659     1.0000     0.3341     0.9146     0.9146     0.0000
 44 H      0.6391     1.0000     0.3609     0.9935     0.9935    -0.0000
 45 H      0.6488     1.0000     0.3512     0.9821     0.9821    -0.0000
 46 H      0.7017     1.0000     0.2983     1.0245     1.0245    -0.0000
 47 H      0.6442     1.0000     0.3558     0.9152     0.9152     0.0000
 48 H      0.5313     1.0000     0.4687     0.7747     0.7747     0.0000

  Mayer bond orders larger than 0.100000
B(  0-N ,  2-C ) :   1.5313 B(  0-N , 22-C ) :   0.3783 B(  1-O ,  7-C ) :   1.3562
B(  2-C , 12-C ) :  -0.1184 B(  2-C , 13-C ) :   0.2963 B(  2-C , 22-C ) :   0.1711
B(  3-N , 12-C ) :   0.7097 B(  3-N , 18-C ) :   0.8733 B(  4-N , 12-C ) :  -0.2235
B(  4-N , 13-C ) :   0.9393 B(  4-N , 19-C ) :   0.7426 B(  5-O ,  7-C ) :   0.7832
B(  5-O , 22-C ) :   0.1259 B(  5-O , 25-C ) :   0.6197 B(  6-O , 21-C ) :   0.8475
B(  6-O , 26-C ) :   0.6001 B(  7-C , 13-C ) :   0.3620 B(  7-C , 22-C ) :   0.6208
B(  8-C , 10-C ) :   1.4624 B(  8-C , 27-H ) :   0.9535 B(  8-C , 28-H ) :   1.0116
B(  9-C , 11-C ) :   1.6758 B(  9-C , 29-H ) :   0.9672 B(  9-C , 30-H ) :   0.9679
B( 10-C , 23-C ) :   0.3441 B( 10-C , 28-H ) :  -0.1059 B( 10-C , 31-H ) :   0.9260
B( 11-C , 24-C ) :   0.6041 B( 11-C , 32-H ) :   0.7988 B( 12-C , 13-C ) :   1.1497
B( 12-C , 18-C ) :  -0.4134 B( 12-C , 20-N ) :   1.1585 B( 12-C , 22-C ) :   0.4760
B( 13-C , 18-C ) :   0.1064 B( 13-C , 19-C ) :  -0.5911 B( 13-C , 20-N ) :  -0.2925
B( 13-C , 22-C ) :  -0.1829 B( 13-C , 40-H ) :  -0.2654 B( 14-C , 15-C ) :   1.2813
B( 14-C , 16-C ) :   1.3746 B( 14-C , 33-H ) :   0.8710 B( 15-C , 17-C ) :   1.2953
B( 15-C , 34-H ) :   0.8236 B( 16-C , 18-C ) :   1.0041 B( 16-C , 35-H ) :   0.7593
B( 17-C , 19-C ) :   1.3369 B( 17-C , 36-H ) :   0.7811 B( 18-C , 19-C ) :   1.2708
B( 19-C , 22-C ) :   0.1472 B( 20-N , 22-C ) :   0.1221 B( 20-N , 23-C ) :   0.7917
B( 20-N , 24-C ) :   0.5487 B( 21-C , 37-H ) :   0.8736 B( 21-C , 38-H ) :   0.9740
B( 21-C , 39-H ) :   0.9655 B( 22-C , 40-H ) :   0.9476 B( 23-C , 41-H ) :   0.9141
B( 23-C , 42-H ) :   0.8329 B( 24-C , 43-H ) :   0.9544 B( 24-C , 44-H ) :   0.8925
B( 25-C , 26-C ) :   0.5964 B( 25-C , 45-H ) :   0.8915 B( 25-C , 46-H ) :   0.9254
B( 26-C , 47-H ) :   0.9261 B( 26-C , 48-H ) :   0.8332

-------------------------   --------------------
FINAL SINGLE POINT ENERGY     -1219.951729570202
-------------------------   --------------------

-------------
DIPOLE MOMENT
-------------

Method             : SCF
Type of density    : Electron Density
Multiplicity       :   1
Irrep              :   0
Energy             : -1219.9517295702016781 Eh
Relativity type    :
Basis              : AO
                                X                 Y                 Z
Electronic contribution:    -16.749306171      -3.972082661       6.210597314
Nuclear contribution   :     17.257922145       4.118239396      -8.078952304
                        -----------------------------------------
Total Dipole Moment    :      0.508615974       0.146156735      -1.868354990
                        -----------------------------------------
Magnitude (a.u.)       :      1.941855393
Magnitude (Debye)      :      4.935804155

-----------------
QUADRUPOLE MOMENT
-----------------

Method             : SCF
Type of density    : Electron Density
Multiplicity       :   1
Irrep              :   0
Energy             : -1219.9517295702016781 Eh
Relativity type    :
Basis              : AO

                XX              YY              ZZ              XY              XZ              YZ
  NUC     4746.367604080  3909.598460929  1862.416563790  1499.454834283   497.601294892  1293.894900494
  EL     -4848.324436601 -4017.200346272 -1994.915911756 -1492.998379400  -496.399369268 -1291.877475850
  TOT     -101.956832521  -107.601885343  -132.499347966     6.456454883     1.201925623     2.017424645 (a.u.)
          -137.135426665  -144.728215770  -178.216154492     8.684152628     1.616631069     2.713505143 (Buckingham)

diagonalized tensor:
          -132.677685161  -111.775367409   -97.605013260 (a.u.)
          -178.456024119  -150.341691883  -131.282080926 (Buckingham)
           -75.288275429     9.054721279    66.233554150 (traceless form in Buckingham)

            -0.023415422     0.552946892     0.832887419
            -0.074180328    -0.831780192     0.550126341
             0.996969908    -0.048902421     0.060494266

Isotropic quadrupole :  -114.019355277

------------------
HIRSHFELD ANALYSIS
------------------

Total integrated alpha density =    208.000092832
Total integrated beta density  =    208.000092832

  ATOM     CHARGE      SPIN
   0 Ac   0.187646    0.000000
   1 C   -0.161439    0.000000
   2 Si   0.265524    0.000000
   3 C   -0.148809    0.000000
   4 C   -0.169925    0.000000
   5 C   -0.305967    0.000000
   6 C    0.133027    0.000000
   7 C   -0.011128    0.000000
   8 C    0.001472    0.000000
   9 C   -0.031065    0.000000
  10 C    0.058510    0.000000
  11 N   -0.154395    0.000000
  12 Si   0.280339    0.000000
  13 C   -0.155410    0.000000
  14 C   -0.167429    0.000000
  15 C   -0.151208    0.000000
  16 H    0.023219    0.000000
  17 H    0.022522    0.000000
  18 H    0.017958    0.000000
  19 H    0.027347    0.000000
  20 H    0.029880    0.000000
  21 H    0.035708    0.000000
  22 H    0.020491    0.000000
  23 H    0.025691    0.000000
  24 H    0.028515    0.000000
  25 H    0.046233    0.000000
  26 H    0.049540    0.000000
  27 H    0.044502    0.000000
  28 H    0.056296    0.000000
  29 H    0.027873    0.000000
  30 H    0.033508    0.000000
  31 H    0.030094    0.000000
  32 H    0.017358    0.000000
  33 H    0.015599    0.000000
  34 H    0.024726    0.000000
  35 H    0.029010    0.000000
  36 H    0.029696    0.000000
  37 H    0.024289    0.000000
  38 C   -0.163082    0.000000
  39 Si   0.274790    0.000000
  40 C   -0.152731    0.000000
  41 C   -0.164477    0.000000
  42 C   -0.297277    0.000000
  43 C    0.126044    0.000000
  44 C   -0.008730    0.000000
  45 C    0.000311    0.000000
  46 C   -0.031978    0.000000
  47 C    0.057353    0.000000
  48 N   -0.149972    0.000000
  49 Si   0.279377    0.000000
  50 C   -0.168900    0.000000
  51 C   -0.165519    0.000000
  52 C   -0.159601    0.000000
  53 H    0.027043    0.000000
  54 H    0.020896    0.000000
  55 H    0.021182    0.000000
  56 H    0.030897    0.000000
  57 H    0.030222    0.000000
  58 H    0.038028    0.000000
  59 H    0.024820    0.000000
  60 H    0.026569    0.000000
  61 H    0.021743    0.000000
  62 H    0.047767    0.000000
  63 H    0.048850    0.000000
  64 H    0.044571    0.000000
  65 H    0.049856    0.000000
  66 H    0.012323    0.000000
  67 H    0.026362    0.000000
  68 H    0.011698    0.000000
  69 H    0.017749    0.000000
  70 H    0.022682    0.000000
  71 H    0.024347    0.000000
  72 H    0.015936    0.000000
  73 H    0.026586    0.000000
  74 H    0.028082    0.000000
  75 C   -0.159836    0.000000
  76 Si   0.274971    0.000000
  77 C   -0.156670    0.000000
  78 C   -0.167590    0.000000
  79 C   -0.296498    0.000000
  80 C    0.135134    0.000000
  81 C   -0.008928    0.000000
  82 C    0.007149    0.000000
  83 C   -0.025692    0.000000
  84 C    0.068111    0.000000
  85 N   -0.153192    0.000000
  86 Si   0.269666    0.000000
  87 C   -0.156277    0.000000
  88 C   -0.170385    0.000000
  89 C   -0.150967    0.000000
  90 H    0.027549    0.000000
  91 H    0.031637    0.000000
  92 H    0.029445    0.000000
  93 H    0.029585    0.000000
  94 H    0.024454    0.000000
  95 H    0.024855    0.000000
  96 H    0.023072    0.000000
  97 H    0.021405    0.000000
  98 H    0.021491    0.000000
  99 H    0.049813    0.000000
 100 H    0.050287    0.000000
 101 H    0.044823    0.000000
 102 H    0.064931    0.000000
 103 H    0.024851    0.000000
 104 H    0.032644    0.000000
 105 H    0.027414    0.000000
 106 H    0.015282    0.000000
 107 H    0.015936    0.000000
 108 H    0.024297    0.000000
 109 H    0.029603    0.000000
 110 H    0.028752    0.000000
 111 H    0.025076    0.000000

  TOTAL  -0.000186    0.000000


------------------
MBIS ANALYSIS
------------------

Convergence threshold (charges)      ...        1.000e-06
Number of iterations                 ...        146

Total integrated alpha density       ...    208.000092832
Total integrated beta density        ...    208.000092832

  ATOM     CHARGE    POPULATION     SPIN
   0 Ac   2.439318   26.560682    0.000000
   1 C   -1.111020    7.111020    0.000000
   2 Si   1.493298   12.506702    0.000000
   3 C   -1.067333    7.067333    0.000000
   4 C   -1.064712    7.064712    0.000000
   5 C   -1.740689    7.740689    0.000000
   6 C    0.621820    5.378180    0.000000
   7 C   -0.305217    6.305217    0.000000
   8 C   -0.024307    6.024307    0.000000
   9 C   -0.257258    6.257258    0.000000
  10 C    0.120780    5.879220    0.000000
  11 N   -0.666193    7.666193    0.000000
  12 Si   1.491978   12.508022    0.000000
  13 C   -1.075534    7.075534    0.000000
  14 C   -1.067637    7.067637    0.000000
  15 C   -1.048790    7.048790    0.000000
  16 H    0.228748    0.771252    0.000000
  17 H    0.254158    0.745842    0.000000
  18 H    0.242478    0.757522    0.000000
  19 H    0.226730    0.773270    0.000000
  20 H    0.217519    0.782481    0.000000
  21 H    0.253939    0.746061    0.000000
  22 H    0.214108    0.785892    0.000000
  23 H    0.231804    0.768196    0.000000
  24 H    0.242789    0.757211    0.000000
  25 H    0.190215    0.809785    0.000000
  26 H    0.139492    0.860508    0.000000
  27 H    0.162875    0.837125    0.000000
  28 H    0.149874    0.850126    0.000000
  29 H    0.239238    0.760762    0.000000
  30 H    0.244049    0.755951    0.000000
  31 H    0.263908    0.736092    0.000000
  32 H    0.213017    0.786983    0.000000
  33 H    0.223351    0.776649    0.000000
  34 H    0.230457    0.769543    0.000000
  35 H    0.238745    0.761255    0.000000
  36 H    0.235711    0.764289    0.000000
  37 H    0.217138    0.782862    0.000000
  38 C   -1.085170    7.085170    0.000000
  39 Si   1.474861   12.525139    0.000000
  40 C   -1.071255    7.071255    0.000000
  41 C   -1.048318    7.048318    0.000000
  42 C   -1.693627    7.693627    0.000000
  43 C    0.588188    5.411812    0.000000
  44 C   -0.294576    6.294576    0.000000
  45 C   -0.027299    6.027299    0.000000
  46 C   -0.267233    6.267233    0.000000
  47 C    0.123673    5.876327    0.000000
  48 N   -0.652477    7.652477    0.000000
  49 Si   1.486463   12.513537    0.000000
  50 C   -1.067333    7.067333    0.000000
  51 C   -1.051635    7.051635    0.000000
  52 C   -1.092836    7.092836    0.000000
  53 H    0.232776    0.767224    0.000000
  54 H    0.241880    0.758120    0.000000
  55 H    0.230374    0.769626    0.000000
  56 H    0.232014    0.767986    0.000000
  57 H    0.218757    0.781243    0.000000
  58 H    0.267951    0.732049    0.000000
  59 H    0.225424    0.774576    0.000000
  60 H    0.228848    0.771152    0.000000
  61 H    0.223352    0.776648    0.000000
  62 H    0.189859    0.810141    0.000000
  63 H    0.137966    0.862034    0.000000
  64 H    0.162143    0.837857    0.000000
  65 H    0.175007    0.824993    0.000000
  66 H    0.235297    0.764703    0.000000
  67 H    0.230262    0.769738    0.000000
  68 H    0.220359    0.779641    0.000000
  69 H    0.210693    0.789307    0.000000
  70 H    0.230154    0.769846    0.000000
  71 H    0.227323    0.772677    0.000000
  72 H    0.253008    0.746992    0.000000
  73 H    0.231883    0.768117    0.000000
  74 H    0.250811    0.749189    0.000000
  75 C   -1.138719    7.138719    0.000000
  76 Si   1.538394   12.461606    0.000000
  77 C   -1.050688    7.050688    0.000000
  78 C   -1.081659    7.081659    0.000000
  79 C   -1.715962    7.715962    0.000000
  80 C    0.613646    5.386354    0.000000
  81 C   -0.318472    6.318472    0.000000
  82 C   -0.026906    6.026906    0.000000
  83 C   -0.251686    6.251686    0.000000
  84 C    0.134450    5.865550    0.000000
  85 N   -0.644687    7.644687    0.000000
  86 Si   1.447798   12.552202    0.000000
  87 C   -1.065890    7.065890    0.000000
  88 C   -1.058361    7.058361    0.000000
  89 C   -1.046513    7.046513    0.000000
  90 H    0.229253    0.770747    0.000000
  91 H    0.263544    0.736456    0.000000
  92 H    0.298734    0.701266    0.000000
  93 H    0.230739    0.769261    0.000000
  94 H    0.221457    0.778543    0.000000
  95 H    0.231715    0.768285    0.000000
  96 H    0.229552    0.770448    0.000000
  97 H    0.227677    0.772323    0.000000
  98 H    0.224561    0.775439    0.000000
  99 H    0.200488    0.799512    0.000000
 100 H    0.144075    0.855925    0.000000
 101 H    0.163638    0.836362    0.000000
 102 H    0.123016    0.876984    0.000000
 103 H    0.238241    0.761759    0.000000
 104 H    0.242634    0.757366    0.000000
 105 H    0.253235    0.746765    0.000000
 106 H    0.213694    0.786306    0.000000
 107 H    0.226415    0.773585    0.000000
 108 H    0.228802    0.771198    0.000000
 109 H    0.242460    0.757540    0.000000
 110 H    0.233106    0.766894    0.000000
 111 H    0.221618    0.778382    0.000000

  TOTAL  -0.000186   416.000186    0.000000

 MBIS VALENCE-SHELL DATA:
  ATOM   POPULATION   WIDTH(A.U.)
   0 Ac   6.581989    0.408576
   1 C    5.444145    0.558563
   2 Si   3.130156    0.656663
   3 C    5.404011    0.554885
   4 C    5.404417    0.552066
   5 C    6.040718    0.608931
   6 C    3.717953    0.478745
   7 C    4.654078    0.514883
   8 C    4.371660    0.503213
   9 C    4.603005    0.514377
  10 C    4.220736    0.499523
  11 N    6.024062    0.459398
  12 Si   3.129392    0.656910
  13 C    5.416121    0.551945
  14 C    5.400338    0.556870
  15 C    5.384789    0.554524
  16 H    0.771252    0.373906
  17 H    0.745842    0.364807
  18 H    0.757522    0.366280
  19 H    0.773270    0.374037
  20 H    0.782481    0.376180
  21 H    0.746061    0.365380
  22 H    0.785892    0.376670
  23 H    0.768196    0.369639
  24 H    0.757211    0.367292
  25 H    0.809785    0.366457
  26 H    0.860508    0.378065
  27 H    0.837125    0.376081
  28 H    0.850126    0.370086
  29 H    0.760762    0.370518
  30 H    0.755951    0.368778
  31 H    0.736092    0.356374
  32 H    0.786983    0.376925
  33 H    0.776649    0.371497
  34 H    0.769543    0.371993
  35 H    0.761255    0.369212
  36 H    0.764289    0.371425
  37 H    0.782862    0.375347
  38 C    5.420956    0.555883
  39 Si   3.160383    0.654524
  40 C    5.412396    0.551978
  41 C    5.385711    0.553416
  42 C    5.990600    0.610594
  43 C    3.748200    0.482310
  44 C    4.643067    0.514549
  45 C    4.375084    0.502982
  46 C    4.612260    0.515168
  47 C    4.219790    0.498256
  48 N    6.007328    0.460645
  49 Si   3.151747    0.652363
  50 C    5.403710    0.554666
  51 C    5.386869    0.554718
  52 C    5.431099    0.554696
  53 H    0.767224    0.372526
  54 H    0.758120    0.368539
  55 H    0.769626    0.370464
  56 H    0.767986    0.372956
  57 H    0.781243    0.371409
  58 H    0.732049    0.360194
  59 H    0.774576    0.373494
  60 H    0.771152    0.371849
  61 H    0.776648    0.373781
  62 H    0.810141    0.367449
  63 H    0.862034    0.378565
  64 H    0.837857    0.376277
  65 H    0.824993    0.360632
  66 H    0.764703    0.368692
  67 H    0.769738    0.373082
  68 H    0.779641    0.370183
  69 H    0.789307    0.376447
  70 H    0.769846    0.370591
  71 H    0.772677    0.372775
  72 H    0.746992    0.363606
  73 H    0.768117    0.372434
  74 H    0.749189    0.365347
  75 C    5.480371    0.554061
  76 Si   3.099603    0.647027
  77 C    5.389910    0.552433
  78 C    5.416077    0.556309
  79 C    6.011298    0.612088
  80 C    3.725687    0.479604
  81 C    4.665580    0.516663
  82 C    4.372041    0.504778
  83 C    4.597117    0.514520
  84 C    4.206535    0.499427
  85 N    6.006931    0.456845
  86 Si   3.169609    0.663206
  87 C    5.405735    0.552064
  88 C    5.392541    0.555594
  89 C    5.382265    0.554527
  90 H    0.770747    0.375416
  91 H    0.736456    0.361400
  92 H    0.701266    0.347319
  93 H    0.769261    0.373062
  94 H    0.778543    0.372250
  95 H    0.768285    0.370022
  96 H    0.770448    0.372509
  97 H    0.772323    0.371193
  98 H    0.775439    0.374097
  99 H    0.799512    0.365624
 100 H    0.855925    0.376843
 101 H    0.836362    0.375758
 102 H    0.876984    0.381293
 103 H    0.761759    0.370209
 104 H    0.757366    0.369101
 105 H    0.746765    0.359092
 106 H    0.786306    0.376068
 107 H    0.773585    0.370593
 108 H    0.771198    0.372804
 109 H    0.757540    0.367855
 110 H    0.766894    0.372269
 111 H    0.778382    0.373436
