
                                 *****************
                                 * O   R   C   A *
                                 *****************

                                            #,
                                            ###
                                            ####
                                            #####
                                            ######
                                           ########,
                                     ,,################,,,,,
                               ,,#################################,,
                          ,,##########################################,,
                       ,#########################################, ''#####,
                    ,#############################################,,   '####,
                  ,##################################################,,,,####,
                ,###########''''           ''''###############################
              ,#####''   ,,,,##########,,,,          '''####'''          '####
            ,##' ,,,,###########################,,,                        '##
           ' ,,###''''                  '''############,,,
         ,,##''                                '''############,,,,        ,,,,,,###''
      ,#''                                            '''#######################'''
     '                                                          ''''####''''
             ,#######,   #######,   ,#######,      ##
            ,#'     '#,  ##    ##  ,#'     '#,    #''#        ,####,   ,####,
            ##       ##  ##   ,#'  ##            #'  '#       #'       #'  '#
            ##       ##  #######   ##           ,######,      #####,   #    #
            '#,     ,#'  ##    ##  '#,     ,#' ,#      #,     #,   #   #,  ,#
             '#######'   ##     ##  '#######'  #'      '#     '####' # '####'



                #########################################################
                #                        -***-                          #
                #          Department of theory and spectroscopy        #
                #                                                       #
                #                      Frank Neese                      #
                #                                                       #
                #     Directorship, Architecture, Infrastructure        #
                #                    SHARK, DRIVERS                     #
                #        Core code/Algorithms in most modules           #
                #                                                       #
                #        Max Planck Institute fuer Kohlenforschung      #
                #                Kaiser Wilhelm Platz 1                 #
                #                 D-45470 Muelheim/Ruhr                 #
                #                      Germany                          #
                #                                                       #
                #                  All rights reserved                  #
                #                        -***-                          #

---------------------------------
CARTESIAN COORDINATES (ANGSTROEM)
---------------------------------
  O     -1.451190    1.589690   -0.983560
  C     -0.540660    2.348620   -1.300470
  C     -0.667120    3.779560   -1.428220
  C     -1.829160    4.468750   -1.414100
  C     -1.989080    5.970640   -1.570800
  C     -3.122110    6.087410   -2.591320
  C     -3.999790    4.858640   -2.369120
  C     -3.278310    3.999010   -1.323880
  N      0.695760    1.906590   -1.543980
  C      1.101340    0.500710   -1.483280
  C      2.574130    0.334720   -1.061750
  C      3.192720   -1.048340   -0.861470
  C      4.224200   -0.131850   -0.206200
  N      5.129310   -0.750480    0.752660
  C      5.997460   -0.046520    1.487150
  O      5.712120    0.406760    2.591510
  C      7.322340    0.104470    0.921660
  C      7.900230   -0.446160   -0.222530
  C      9.259160    0.011590   -0.301250
  C     10.318520   -0.184800   -1.203610
  F     10.162190   -0.958100   -2.302820
  C     11.544090    0.429450   -0.953170
  C     11.735440    1.229540    0.171320
  C     10.711660    1.453560    1.094780
  C      9.480960    0.836910    0.840290
  N      8.295160    0.855250    1.543100
  C      4.786020    0.716590   -1.348850
  O      3.504270    1.002290   -1.920100
  C      3.052320    0.679200    0.348940
  H      0.257080    4.322760   -1.544960
  H     -2.286320    6.419570   -0.620980
  H     -1.088480    6.493210   -1.895540
  H     -3.678750    7.018610   -2.473280
  H     -2.717760    6.080810   -3.605680
  H     -5.002390    5.127270   -2.031780
  H     -4.118050    4.303680   -3.302030
  H     -3.444630    2.936220   -1.500430
  H     -3.664820    4.210630   -0.325590
  H      1.398280    2.560660   -1.847190
  H      0.474380   -0.062010   -0.786880
  H      0.951350    0.045500   -2.463270
  H      2.653940   -1.727130   -0.195650
  H      3.502080   -1.571720   -1.766770
  H      5.426610   -1.684940    0.531790
  H      7.413690   -1.102530   -0.928050
  H     12.356040    0.275030   -1.649760
  H     12.704340    1.685700    0.328160
  H     10.869080    2.074830    1.964620
  H      8.096100    1.329510    2.412820
  H      5.292540    1.604100   -0.965540
  H      5.423890    0.120890   -2.003090
  H      3.240100    1.733200    0.555630
  H      2.501700    0.230170    1.178840


               *****************************************************
               *                     SUCCESS                       *
               *           SCF CONVERGED AFTER  15 CYCLES          *
               *****************************************************

Recomputing exchange energy using gridx3       ... done (  171.615 sec)
Old exchange energy                            :    -54.632244638 Eh
New exchange energy                            :    -54.632240015 Eh
Exchange energy change after final integration :      0.000004623 Eh
Total energy after final integration           :  -1342.545352756 Eh
             **** ENERGY FILE WAS UPDATED (/tmp/tmpwvzlw9w7/orca.en.tmp) ****

----------------
TOTAL SCF ENERGY
----------------

Total Energy       :      -1342.54535275551711 Eh          -36532.51633 eV

Components:
Nuclear Repulsion  :       2557.63336953413000 Eh           69596.74222 eV
Electronic Energy  :      -3900.95884095306155 Eh         -106150.48665 eV
One Electron Energy:      -6910.10794669760344 Eh         -188033.59667 eV
Two Electron Energy:       3009.14910574454188 Eh           81883.11002 eV

Virial components:
Potential Energy   :      -2681.17105068620640 Eh          -72958.37342 eV
Kinetic Energy     :       1338.62569793068951 Eh           36425.85710 eV
Virial Ratio       :          2.00292811861515

DFT components:
N(Alpha)           :      104.999996332583 electrons
N(Beta)            :      104.999996332583 electrons
N(Total)           :      209.999992665166 electrons
NL Energy, E(C,NL) :        0.780114040230 Eh
E(XC)              :     -130.730757296629 Eh

---------------
SCF CONVERGENCE
---------------

  Last Energy change         ...    1.2276e-09  Tolerance :   1.0000e-08
  Last MAX-Density change    ...    1.7607e-03  Tolerance :   1.0000e-07
  Last RMS-Density change    ...    1.0580e-05  Tolerance :   5.0000e-09
  Last DIIS Error            ...    8.0031e-06  Tolerance :   5.0000e-07


----------------
ORBITAL ENERGIES
----------------

  NO   OCC          E(Eh)            E(eV)
   0   2.0000     -24.927381      -678.3085
   1   2.0000     -19.353090      -526.6244
   2   2.0000     -19.333267      -526.0849
   3   2.0000     -19.277176      -524.5586
   4   2.0000     -14.566097      -396.3637
   5   2.0000     -14.523205      -395.1965
   6   2.0000     -14.511339      -394.8736
   7   2.0000     -10.470654      -284.9210
   8   2.0000     -10.451098      -284.3888
   9   2.0000     -10.431505      -283.8557
  10   2.0000     -10.424184      -283.6565
  ...
  99   2.0000      -0.354995        -9.6599
 100   2.0000      -0.350534        -9.5385
 101   2.0000      -0.344706        -9.3799
 102   2.0000      -0.340633        -9.2691
 103   2.0000      -0.337167        -9.1748
 104   2.0000      -0.311606        -8.4792
 105   0.0000      -0.009184        -0.2499
 106   0.0000       0.021735         0.5914
 107   0.0000       0.032809         0.8928
 108   0.0000       0.035088         0.9548
 109   0.0000       0.038042         1.0352
 110   0.0000       0.043524         1.1843
  ...
 291   0.0000       0.457406        12.4466
 292   0.0000       0.459315        12.4986
 293   0.0000       0.463068        12.6007


-----------------------
MULLIKEN ATOMIC CHARGES
-----------------------
   0 O :   -0.740774
   1 C :    0.978726
   2 C :   -0.584804
   3 C :    0.197960
   4 C :   -0.853821
   5 C :   -0.548526
   6 C :   -0.572119
   7 C :   -0.623324
   8 N :   -0.059241
   9 C :   -1.150675
  10 C :    1.114225
  11 C :   -0.942828
  12 C :    0.405698
  13 N :   -0.222080
  14 C :   -0.191875
  15 O :   -0.601564
  16 C :    0.550065
  17 C :   -0.417778
  18 C :    0.479120
  19 C :    0.279000
  20 F :   -0.304276
  21 C :   -0.681623
