
                                 *****************
                                 * O   R   C   A *
                                 *****************

                                            #,
                                            ###
                                            ####
                                            #####
                                            ######
                                           ########,
                                     ,,################,,,,,
                               ,,#################################,,
                          ,,##########################################,,
                       ,#########################################, ''#####,
                    ,#############################################,,   '####,
                  ,##################################################,,,,####,
                ,###########''''           ''''###############################
              ,#####''   ,,,,##########,,,,          '''####'''          '####
            ,##' ,,,,###########################,,,                        '##
           ' ,,###''''                  '''############,,,
         ,,##''                                '''############,,,,        ,,,,,,###''
      ,#''                                            '''#######################'''
     '                                                          ''''####''''
             ,#######,   #######,   ,#######,      ##
            ,#'     '#,  ##    ##  ,#'     '#,    #''#        ,####,   ,####,
            ##       ##  ##   ,#'  ##            #'  '#       #'       #'  '#
            ##       ##  #######   ##           ,######,      #####,   #    #
            '#,     ,#'  ##    ##  '#,     ,#' ,#      #,     #,   #   #,  ,#
             '#######'   ##     ##  '#######'  #'      '#     '####' # '####'



                #########################################################
                #                        -***-                          #
                #          Department of theory and spectroscopy        #
                #                                                       #
                #                      Frank Neese                      #
                #                                                       #
                #     Directorship, Architecture, Infrastructure        #
                #                    SHARK, DRIVERS                     #
                #        Core code/Algorithms in most modules           #
                #                                                       #
                #        Max Planck Institute fuer Kohlenforschung      #
                #                Kaiser Wilhelm Platz 1                 #
                #                 D-45470 Muelheim/Ruhr                 #
                #                      Germany                          #
                #                                                       #
                #                  All rights reserved                  #
                #                        -***-                          #

---------------------------------
CARTESIAN COORDINATES (ANGSTROEM)
---------------------------------
  O     -1.451190    1.589690   -0.983560
  C     -0.540660    2.348620   -1.300470
  C     -0.667120    3.779560   -1.428220
  C     -1.829160    4.468750   -1.414100
  C     -1.989080    5.970640   -1.570800
  C     -3.122110    6.087410   -2.591320
  C     -3.999790    4.858640   -2.369120
  C     -3.278310    3.999010   -1.323880
  N      0.695760    1.906590   -1.543980
  C      1.101340    0.500710   -1.483280
  C      2.574130    0.334720   -1.061750
  C      3.192720   -1.048340   -0.861470
  C      4.224200   -0.131850   -0.206200
  N      5.129310   -0.750480    0.752660
  C      5.997460   -0.046520    1.487150
  O      5.712120    0.406760    2.591510
  C      7.322340    0.104470    0.921660
  C      7.900230   -0.446160   -0.222530
  C      9.259160    0.011590   -0.301250
  C     10.318520   -0.184800   -1.203610
  F     10.162190   -0.958100   -2.302820
  C     11.544090    0.429450   -0.953170
  C     11.735440    1.229540    0.171320
  C     10.711660    1.453560    1.094780
  C      9.480960    0.836910    0.840290
  N      8.295160    0.855250    1.543100
  C      4.786020    0.716590   -1.348850
  O      3.504270    1.002290   -1.920100
  C      3.052320    0.679200    0.348940
  H      0.257080    4.322760   -1.544960
  H     -2.286320    6.419570   -0.620980
  H     -1.088480    6.493210   -1.895540
  H     -3.678750    7.018610   -2.473280
  H     -2.717760    6.080810   -3.605680
  H     -5.002390    5.127270   -2.031780
  H     -4.118050    4.303680   -3.302030
  H     -3.444630    2.936220   -1.500430
  H     -3.664820    4.210630   -0.325590
  H      1.398280    2.560660   -1.847190
  H      0.474380   -0.062010   -0.786880
  H      0.951350    0.045500   -2.463270
  H      2.653940   -1.727130   -0.195650
  H      3.502080   -1.571720   -1.766770
  H      5.426610   -1.684940    0.531790
  H      7.413690   -1.102530   -0.928050
  H     12.356040    0.275030   -1.649760
  H     12.704340    1.685700    0.328160
  H     10.869080    2.074830    1.964620
  H      8.096100    1.329510    2.412820
  H      5.292540    1.604100   -0.965540
  H      5.423890    0.120890   -2.003090
  H      3.240100    1.733200    0.555630
  H      2.501700    0.230170    1.178840


               *****************************************************
               *                     SUCCESS                       *
               *           SCF CONVERGED AFTER  15 CYCLES          *
               *****************************************************

Recomputing exchange energy using gridx3       ... done (  171.615 sec)
Old exchange energy                            :    -54.632244638 Eh
New exchange energy                            :    -54.632240015 Eh
Exchange energy change after final integration :      0.000004623 Eh
Total energy after final integration           :  -1342.545352756 Eh
             **** ENERGY FILE WAS UPDATED (/tmp/tmpwvzlw9w7/orca.en.tmp) ****

----------------
TOTAL SCF ENERGY
----------------

Total Energy       :      -1342.54535275551711 Eh          -36532.51633 eV

Components:
Nuclear Repulsion  :       2557.63336953413000 Eh           69596.74222 eV
Electronic Energy  :      -3900.95884095306155 Eh         -106150.48665 eV
One Electron Energy:      -6910.10794669760344 Eh         -188033.59667 eV
Two Electron Energy:       3009.14910574454188 Eh           81883.11002 eV

Virial components:
Potential Energy   :      -2681.17105068620640 Eh          -72958.37342 eV
Kinetic Energy     :       1338.62569793068951 Eh           36425.85710 eV
Virial Ratio       :          2.00292811861515

DFT components:
N(Alpha)           :      104.999996332583 electrons
N(Beta)            :      104.999996332583 electrons
N(Total)           :      209.999992665166 electrons
NL Energy, E(C,NL) :        0.780114040230 Eh
E(XC)              :     -130.730757296629 Eh

---------------
SCF CONVERGENCE
---------------

  Last Energy change         ...    1.2276e-09  Tolerance :   1.0000e-08
  Last MAX-Density change    ...    1.7607e-03  Tolerance :   1.0000e-07
  Last RMS-Density change    ...    1.0580e-05  Tolerance :   5.0000e-09
  Last DIIS Error            ...    8.0031e-06  Tolerance :   5.0000e-07


----------------
ORBITAL ENERGIES
----------------

  NO   OCC          E(Eh)            E(eV)
   0   2.0000     -24.927381      -678.3085
   1   2.0000     -19.353090      -526.6244
   2   2.0000     -19.333267      -526.0849
   3   2.0000     -19.277176      -524.5586
   4   2.0000     -14.566097      -396.3637
   5   2.0000     -14.523205      -395.1965
   6   2.0000     -14.511339      -394.8736
   7   2.0000     -10.470654      -284.9210
   8   2.0000     -10.451098      -284.3888
   9   2.0000     -10.431505      -283.8557
  10   2.0000     -10.424184      -283.6565
  ...
  99   2.0000      -0.354995        -9.6599
 100   2.0000      -0.350534        -9.5385
 101   2.0000      -0.344706        -9.3799
 102   2.0000      -0.340633        -9.2691
 103   2.0000      -0.337167        -9.1748
 104   2.0000      -0.311606        -8.4792
 105   0.0000      -0.009184        -0.2499
 106   0.0000       0.021735         0.5914
 107   0.0000       0.032809         0.8928
 108   0.0000       0.035088         0.9548
 109   0.0000       0.038042         1.0352
 110   0.0000       0.043524         1.1843
  ...
 291   0.0000       0.457406        12.4466
 292   0.0000       0.459315        12.4986
 293   0.0000       0.463068        12.6007


-----------------------
MULLIKEN ATOMIC CHARGES
-----------------------
   0 O :   -0.740774
   1 C :    0.978726
   2 C :   -0.584804
   3 C :    0.197960
   4 C :   -0.853821
   5 C :   -0.548526
   6 C :   -0.572119
   7 C :   -0.623324
   8 N :   -0.059241
   9 C :   -1.150675
  10 C :    1.114225
  11 C :   -0.942828
  12 C :    0.405698
  13 N :   -0.222080
  14 C :   -0.191875
  15 O :   -0.601564
  16 C :    0.550065
  17 C :   -0.417778
  18 C :    0.479120
  19 C :    0.279000
  20 F :   -0.304276
  21 C :   -0.681623
  22 C :   -0.312245
  23 C :   -1.011204
  24 C :   -0.059674
  25 N :   -0.077406
  26 C :   -0.790484
  27 O :   -0.531999
  28 C :   -0.622232
  29 H :    0.249854
  30 H :    0.294228
  31 H :    0.364551
  32 H :    0.303776
  33 H :    0.270876
  34 H :    0.283664
  35 H :    0.266625
  36 H :    0.362284
  37 H :    0.287163
  38 H :    0.228224
  39 H :    0.379112
  40 H :    0.283688
  41 H :    0.308267
  42 H :    0.326692
  43 H :    0.394355
  44 H :    0.608529
  45 H :    0.437395
  46 H :    0.376514
  47 H :    0.417521
  48 H :    0.212851
  49 H :    0.344612
  50 H :    0.308058
  51 H :    0.294533
  52 H :    0.292385
Sum of atomic charges:   -0.0000000

----------------------
LOEWDIN ATOMIC CHARGES
----------------------
   0 O :    0.048565
   1 C :   -0.519627
   2 C :    0.026475
   3 C :   -0.172673
   4 C :   -0.150930
   5 C :   -0.193943
   6 C :   -0.188383
   7 C :   -0.131035
   8 N :    0.081577
   9 C :   -0.053287
  10 C :   -0.435344
  11 C :    0.001873
  12 C :   -0.417267
  13 N :    0.115878
  14 C :   -0.441921
  15 O :    0.116451
  16 C :   -0.167697
  17 C :    0.061914
  18 C :   -0.088703
  19 C :   -0.207826
  20 F :    0.068589
  21 C :   -0.025615
  22 C :   -0.083691
  23 C :   -0.015421
  24 C :   -0.180037
  25 N :    0.139244
  26 C :   -0.080332
  27 O :   -0.055977
  28 C :    0.005264
  29 H :    0.107233
  30 H :    0.121113
  31 H :    0.111551
  32 H :    0.104419
  33 H :    0.108407
  34 H :    0.104729
  35 H :    0.107328
  36 H :    0.105972
  37 H :    0.124536
  38 H :    0.134110
  39 H :    0.133352
  40 H :    0.131644
  41 H :    0.138568
  42 H :    0.129777
  43 H :    0.146859
  44 H :    0.111837
  45 H :    0.112982
  46 H :    0.104010
  47 H :    0.105615
  48 H :    0.164844
  49 H :    0.135256
  50 H :    0.127790
  51 H :    0.129795
  52 H :    0.142150

---------------------------------
LOEWDIN BOND ORDERS (THRESH 0.050000)
---------------------------------
B(  0-O ,  1-C ) :   2.5719 B(  0-O ,  2-C ) :   0.3283 B(  0-O ,  3-C ) :   0.0981
B(  0-O ,  7-C ) :   0.0843 B(  0-O ,  8-N ) :   0.4274 B(  0-O ,  9-C ) :   0.1224
B(  0-O , 36-H ) :   0.0671 B(  0-O , 39-H ) :   0.0574 B(  1-C ,  2-C ) :   1.1554
B(  1-C ,  3-C ) :   0.3273 B(  1-C ,  7-C ) :   0.0604 B(  1-C ,  8-N ) :   1.5974
B(  1-C ,  9-C ) :   0.2577 B(  1-C , 29-H ) :   0.1480 B(  1-C , 38-H ) :   0.1564
B(  2-C ,  3-C ) :   1.6830 B(  2-C ,  4-C ) :   0.2802 B(  2-C ,  7-C ) :   0.2458
B(  2-C ,  8-N ) :   0.3073 B(  2-C , 29-H ) :   0.7555 B(  2-C , 38-H ) :   0.0639
B(  3-C ,  4-C ) :   1.1344 B(  3-C ,  5-C ) :   0.2569 B(  3-C ,  6-C ) :   0.2483
B(  3-C ,  7-C ) :   1.1101 B(  3-C , 29-H ) :   0.1970 B(  3-C , 30-H ) :   0.1407
B(  3-C , 31-H ) :   0.1333 B(  3-C , 36-H ) :   0.1248 B(  3-C , 37-H ) :   0.1423
B(  4-C ,  5-C ) :   1.2240 B(  4-C ,  6-C ) :   0.2443 B(  4-C ,  7-C ) :   0.2620
B(  4-C , 30-H ) :   0.7674 B(  4-C , 31-H ) :   0.7865 B(  4-C , 32-H ) :   0.1414
B(  4-C , 33-H ) :   0.1435 B(  5-C ,  6-C ) :   1.2369 B(  5-C ,  7-C ) :   0.2391
B(  5-C , 30-H ) :   0.1387 B(  5-C , 31-H ) :   0.1377 B(  5-C , 32-H ) :   0.7977
B(  5-C , 33-H ) :   0.7869 B(  5-C , 34-H ) :   0.1423 B(  5-C , 35-H ) :   0.1451
B(  6-C ,  7-C ) :   1.2179 B(  6-C , 32-H ) :   0.1419 B(  6-C , 33-H ) :   0.1446
B(  6-C , 34-H ) :   0.7958 B(  6-C , 35-H ) :   0.7895 B(  6-C , 36-H ) :   0.1361
B(  6-C , 37-H ) :   0.1388 B(  7-C , 34-H ) :   0.1428 B(  7-C , 35-H ) :   0.1430
B(  7-C , 36-H ) :   0.7693 B(  7-C , 37-H ) :   0.7616 B(  8-N ,  9-C ) :   1.3451
B(  8-N , 10-C ) :   0.2124 B(  8-N , 29-H ) :   0.0538 B(  8-N , 38-H ) :   0.8203
B(  8-N , 39-H ) :   0.1287 B(  8-N , 40-H ) :   0.1389 B(  9-C , 10-C ) :   1.0424
B(  9-C , 11-C ) :   0.1585 B(  9-C , 27-O ) :   0.1998 B(  9-C , 28-C ) :   0.1562
B(  9-C , 38-H ) :   0.1269 B(  9-C , 39-H ) :   0.7385 B(  9-C , 40-H ) :   0.7648
B( 10-C , 11-C ) :   1.0334 B( 10-C , 12-C ) :   0.4662 B( 10-C , 13-N ) :   0.0508
B( 10-C , 26-C ) :   0.2672 B( 10-C , 27-O ) :   1.4625 B( 10-C , 28-C ) :   1.0307
B( 10-C , 39-H ) :   0.1297 B( 10-C , 40-H ) :   0.1314 B( 10-C , 41-H ) :   0.1156
B( 10-C , 42-H ) :   0.1161 B( 10-C , 51-H ) :   0.1149 B( 10-C , 52-H ) :   0.1143
B( 11-C , 12-C ) :   1.0287 B( 11-C , 13-N ) :   0.1810 B( 11-C , 26-C ) :   0.2024
B( 11-C , 27-O ) :   0.2461 B( 11-C , 28-C ) :   0.3665 B( 11-C , 41-H ) :   0.7532
B( 11-C , 42-H ) :   0.7692 B( 11-C , 52-H ) :   0.0532 B( 12-C , 13-N ) :   1.2548
B( 12-C , 14-C ) :   0.2330 B( 12-C , 15-O ) :   0.0560 B( 12-C , 26-C ) :   1.0170
B( 12-C , 27-O ) :   0.3029 B( 12-C , 28-C ) :   1.0239 B( 12-C , 41-H ) :   0.1184
B( 12-C , 42-H ) :   0.1168 B( 12-C , 43-H ) :   0.1269 B( 12-C , 49-H ) :   0.1222
B( 12-C , 50-H ) :   0.1226 B( 12-C , 51-H ) :   0.1157 B( 12-C , 52-H ) :   0.1176
B( 13-N , 14-C ) :   1.5044 B( 13-N , 15-O ) :   0.3911 B( 13-N , 16-C ) :   0.2543
B( 13-N , 17-C ) :   0.0775 B( 13-N , 26-C ) :   0.1557 B( 13-N , 28-C ) :   0.1759
B( 13-N , 43-H ) :   0.8284 B( 14-C , 15-O ) :   2.6168 B( 14-C , 16-C ) :   1.0535
B( 14-C , 17-C ) :   0.2427 B( 14-C , 25-N ) :   0.2221 B( 14-C , 43-H ) :   0.1638
B( 15-O , 16-C ) :   0.3551 B( 15-O , 17-C ) :   0.0519 B( 15-O , 25-N ) :   0.0891
B( 16-C , 17-C ) :   1.4311 B( 16-C , 18-C ) :   0.3645 B( 16-C , 24-C ) :   0.3360
B( 16-C , 25-N ) :   1.4566 B( 16-C , 44-H ) :   0.1640 B( 16-C , 48-H ) :   0.1375
B( 17-C , 18-C ) :   1.2657 B( 17-C , 19-C ) :   0.2325 B( 17-C , 24-C ) :   0.3154
B( 17-C , 25-N ) :   0.3912 B( 17-C , 44-H ) :   0.7814 B( 18-C , 19-C ) :   1.2464
B( 18-C , 20-F ) :   0.2674 B( 18-C , 21-C ) :   0.3080 B( 18-C , 22-C ) :   0.1411
B( 18-C , 23-C ) :   0.2600 B( 18-C , 24-C ) :   1.1692 B( 18-C , 25-N ) :   0.3306
B( 18-C , 44-H ) :   0.1481 B( 19-C , 20-F ) :   1.9396 B( 19-C , 21-C ) :   1.4323
B( 19-C , 22-C ) :   0.3543 B( 19-C , 23-C ) :   0.1492 B( 19-C , 24-C ) :   0.2775
B( 19-C , 45-H ) :   0.1780 B( 20-F , 21-C ) :   0.3016 B( 21-C , 22-C ) :   1.5028
B( 21-C , 23-C ) :   0.3561 B( 21-C , 24-C ) :   0.1465 B( 21-C , 45-H ) :   0.7878
B( 21-C , 46-H ) :   0.1840 B( 22-C , 23-C ) :   1.5610 B( 22-C , 24-C ) :   0.3630
B( 22-C , 45-H ) :   0.1800 B( 22-C , 46-H ) :   0.7982 B( 22-C , 47-H ) :   0.1846
B( 23-C , 24-C ) :   1.3659 B( 23-C , 25-N ) :   0.2439 B( 23-C , 46-H ) :   0.1863
B( 23-C , 47-H ) :   0.8052 B( 24-C , 25-N ) :   1.4587 B( 24-C , 47-H ) :   0.1715
B( 24-C , 48-H ) :   0.1314 B( 25-N , 48-H ) :   0.8290 B( 26-C , 27-O ) :   1.5945
B( 26-C , 28-C ) :   0.2028 B( 26-C , 49-H ) :   0.7557 B( 26-C , 50-H ) :   0.7571
B( 27-O , 28-C ) :   0.2426 B( 27-O , 49-H ) :   0.1402 B( 27-O , 50-H ) :   0.1412
B( 28-C , 41-H ) :   0.0536 B( 28-C , 51-H ) :   0.7658 B( 28-C , 52-H ) :   0.7491
B( 30-H , 31-H ) :   0.0980 B( 32-H , 33-H ) :   0.0995 B( 34-H , 35-H ) :   0.0998
B( 36-H , 37-H ) :   0.0960 B( 39-H , 40-H ) :   0.0919 B( 41-H , 42-H ) :   0.0959
B( 49-H , 50-H ) :   0.0927 B( 51-H , 52-H ) :   0.0956


                      *****************************
                      * MAYER POPULATION ANALYSIS *
                      *****************************

  NA   - Mulliken gross atomic population
  ZA   - Total nuclear charge
  QA   - Mulliken gross atomic charge
  VA   - Mayer's total valence
  BVA  - Mayer's bonded valence
  FA   - Mayer's free valence

  ATOM       NA         ZA         QA         VA         BVA        FA
  0 O      8.7408     8.0000    -0.7408     1.5029     1.5029    -0.0000
  1 C      5.0213     6.0000     0.9787     2.5627     2.5627     0.0000
  2 C      6.5848     6.0000    -0.5848     4.0335     4.0335    -0.0000
  3 C      5.8020     6.0000     0.1980     3.0633     3.0633    -0.0000
  4 C      6.8538     6.0000    -0.8538     3.5369     3.5369    -0.0000
  5 C      6.5485     6.0000    -0.5485     3.3683     3.3683     0.0000
  6 C      6.5721     6.0000    -0.5721     3.3660     3.3660     0.0000
  7 C      6.6233     6.0000    -0.6233     3.4197     3.4197     0.0000
  8 N      7.0592     7.0000    -0.0592     3.0516     3.0516    -0.0000
  9 C      7.1507     6.0000    -1.1507     2.8245     2.8245    -0.0000
 10 C      4.8858     6.0000     1.1142     2.2119     2.2119    -0.0000
 11 C      6.9428     6.0000    -0.9428     3.8524     3.8524    -0.0000
 12 C      5.5943     6.0000     0.4057     2.8315     2.8315    -0.0000
 13 N      7.2221     7.0000    -0.2221     2.4902     2.4902     0.0000
 14 C      6.1919     6.0000    -0.1919     3.1328     3.1328     0.0000
 15 O      8.6016     8.0000    -0.6016     1.5211     1.5211     0.0000
 16 C      5.4499     6.0000     0.5501     1.5032     1.5032    -0.0000
 17 C      6.4178     6.0000    -0.4178     1.9068     1.9068     0.0000
 18 C      5.5209     6.0000     0.4791     1.6113     1.6113    -0.0000
 19 C      5.7210     6.0000     0.2790     2.5500     2.5500    -0.0000
 20 F      9.3043     9.0000    -0.3043     0.9651     0.9651    -0.0000
 21 C      6.6816     6.0000    -0.6816     3.9481     3.9481     0.0000
 22 C      6.3122     6.0000    -0.3122     3.4707     3.4707     0.0000
 23 C      7.0112     6.0000    -1.0112     2.9045     2.9045     0.0000
 24 C      6.0597     6.0000    -0.0597     2.3734     2.3734    -0.0000
 25 N      7.0774     7.0000    -0.0774     3.1894     3.1894    -0.0000
 26 C      6.7905     6.0000    -0.7905     3.7103     3.7103     0.0000
 27 O      8.5320     8.0000    -0.5320     1.4658     1.4658    -0.0000
 28 C      6.6222     6.0000    -0.6222     3.9178     3.9178     0.0000
 29 H      0.7501     1.0000     0.2499     0.9104     0.9104    -0.0000
 30 H      0.7058     1.0000     0.2942     1.0221     1.0221    -0.0000
 31 H      0.6354     1.0000     0.3646     1.0008     1.0008    -0.0000
 32 H      0.6962     1.0000     0.3038     1.0534     1.0534     0.0000
 33 H      0.7291     1.0000     0.2709     1.0532     1.0532     0.0000
 34 H      0.7163     1.0000     0.2837     1.0419     1.0419    -0.0000
 35 H      0.7334     1.0000     0.2666     1.0667     1.0667     0.0000
 36 H      0.6377     1.0000     0.3623     1.0459     1.0459     0.0000
 37 H      0.7128     1.0000     0.2872     0.9817     0.9817     0.0000
 38 H      0.7718     1.0000     0.2282     0.9567     0.9567    -0.0000
 39 H      0.6209     1.0000     0.3791     0.8399     0.8399    -0.0000
 40 H      0.7163     1.0000     0.2837     0.9806     0.9806     0.0000
 41 H      0.6917     1.0000     0.3083     1.0213     1.0213    -0.0000
 42 H      0.6733     1.0000     0.3267     1.0278     1.0278    -0.0000
 43 H      0.6056     1.0000     0.3944     0.7311     0.7311    -0.0000
 44 H      0.3915     1.0000     0.6085     0.5149     0.5149     0.0000
 45 H      0.5626     1.0000     0.4374     0.7256     0.7256     0.0000
 46 H      0.6235     1.0000     0.3765     0.8387     0.8387    -0.0000
 47 H      0.5825     1.0000     0.4175     0.7781     0.7781     0.0000
 48 H      0.7871     1.0000     0.2129     1.0793     1.0793     0.0000
 49 H      0.6554     1.0000     0.3446     1.0249     1.0249     0.0000
 50 H      0.6919     1.0000     0.3081     0.9978     0.9978    -0.0000
 51 H      0.7055     1.0000     0.2945     1.0498     1.0498    -0.0000
 52 H      0.7076     1.0000     0.2924     1.0125     1.0125    -0.0000

  Mayer bond orders larger than 0.100000
B(  0-O ,  1-C ) :   1.3593 B(  1-C ,  2-C ) :   0.5434 B(  1-C ,  8-N ) :   1.0708
B(  1-C ,  9-C ) :  -0.1300 B(  1-C , 29-H ) :  -0.1539 B(  2-C ,  3-C ) :   2.0906
B(  2-C ,  4-C ) :   0.1778 B(  2-C ,  7-C ) :   0.1321 B(  2-C , 29-H ) :   0.8910
B(  3-C ,  4-C ) :   0.6360 B(  3-C ,  7-C ) :   0.6722 B(  3-C , 31-H ) :  -0.1323
B(  4-C ,  5-C ) :   0.7848 B(  4-C , 30-H ) :   0.9204 B(  4-C , 31-H ) :   0.9651
B(  5-C ,  6-C ) :   0.7620 B(  5-C , 32-H ) :   0.9782 B(  5-C , 33-H ) :   0.9827
B(  6-C ,  7-C ) :   0.6975 B(  6-C , 34-H ) :   1.0016 B(  6-C , 35-H ) :   1.0140
B(  7-C , 36-H ) :   0.9869 B(  7-C , 37-H ) :   0.9047 B(  8-N ,  9-C ) :   0.8431
B(  8-N , 10-C ) :   0.1152 B(  8-N , 38-H ) :   0.9663 B(  9-C , 10-C ) :   0.1624
B(  9-C , 39-H ) :   0.9009 B(  9-C , 40-H ) :   0.9473 B( 10-C , 11-C ) :   0.9204
B( 10-C , 26-C ) :  -0.1294 B( 10-C , 27-O ) :   0.2811 B( 10-C , 28-C ) :   0.8114
B( 11-C , 12-C ) :   0.9117 B( 11-C , 26-C ) :   0.1155 B( 11-C , 27-O ) :   0.2174
B( 11-C , 41-H ) :   0.9694 B( 11-C , 42-H ) :   0.7687 B( 12-C , 13-N ) :   0.4181
B( 12-C , 15-O ) :   0.1147 B( 12-C , 26-C ) :   0.6675 B( 12-C , 27-O ) :  -0.1166
B( 12-C , 28-C ) :   0.8870 B( 13-N , 14-C ) :   1.5036 B( 13-N , 15-O ) :  -0.1142
B( 13-N , 16-C ) :  -0.1266 B( 13-N , 43-H ) :   0.7767 B( 14-C , 15-O ) :   1.5510
B( 14-C , 24-C ) :   0.1619 B( 14-C , 25-N ) :  -0.1009 B( 15-O , 16-C ) :  -0.1539
B( 16-C , 17-C ) :   1.0227 B( 16-C , 24-C ) :  -0.4063 B( 16-C , 25-N ) :   1.2757
B( 16-C , 44-H ) :  -0.1402 B( 17-C , 24-C ) :   0.2203 B( 17-C , 25-N ) :  -0.1108
B( 17-C , 44-H ) :   0.5992 B( 18-C , 19-C ) :   0.8206 B( 18-C , 20-F ) :   0.3001
B( 18-C , 21-C ) :   0.2510 B( 18-C , 23-C ) :  -0.1014 B( 18-C , 24-C ) :   0.6404
B( 18-C , 25-N ) :  -0.1655 B( 19-C , 20-F ) :   0.4154 B( 19-C , 21-C ) :   1.3982
B( 19-C , 24-C ) :  -0.2540 B( 20-F , 21-C ) :   0.1264 B( 21-C , 22-C ) :   1.2528
B( 21-C , 23-C ) :   0.1352 B( 21-C , 45-H ) :   0.7467 B( 22-C , 23-C ) :   1.4293
B( 22-C , 24-C ) :  -0.1790 B( 22-C , 46-H ) :   0.8112 B( 23-C , 24-C ) :   0.7862
B( 23-C , 25-N ) :  -0.1206 B( 23-C , 47-H ) :   0.7974 B( 24-C , 25-N ) :   1.3671
B( 25-N , 48-H ) :   0.9365 B( 26-C , 27-O ) :   0.8206 B( 26-C , 28-C ) :   0.1764
B( 26-C , 49-H ) :   0.9809 B( 26-C , 50-H ) :   0.9642 B( 27-O , 28-C ) :   0.1924
B( 28-C , 51-H ) :   0.8824 B( 28-C , 52-H ) :   1.0431 B( 30-H , 31-H ) :   0.1035
B( 36-H , 37-H ) :   0.1038 B( 41-H , 42-H ) :   0.1288 B( 49-H , 50-H ) :   0.1320


-------------------------   --------------------
FINAL SINGLE POINT ENERGY     -1342.545352755517
-------------------------   --------------------


------------------
CARTESIAN GRADIENT
------------------

   1   O   :    0.000385692    0.000381587    0.000766511
   2   C   :    0.020861570    0.020973062   -0.008697032
   3   C   :    0.027620576   -0.036506110    0.001486228
   4   C   :   -0.000399856    0.002625783   -0.008225532
   5   C   :   -0.012821759    0.001481148    0.007727465
   6   C   :    0.000070805   -0.010701325    0.002761279
   7   C   :    0.009230417    0.003697193    0.000081210
   8   C   :   -0.006412371    0.014054201    0.006924897
   9   N   :   -0.033178581    0.019025516   -0.000543646
  10   C   :   -0.013211170   -0.005430364    0.006052120
  11   C   :    0.051765758   -0.002846949    0.001691286
  12   C   :   -0.005012615    0.003056735    0.019564068
  13   C   :   -0.030904415    0.030196031   -0.054277960
  14   N   :    0.040947186    0.034307354    0.032364784
  15   C   :   -0.018595332   -0.024643315   -0.049476033
  16   O   :   -0.007342162   -0.005570361    0.018986757
  17   C   :   -0.045253319    0.004076594    0.023210728
  18   C   :    0.008085197   -0.005049189   -0.006634934
  19   C   :    0.006814372    0.002204772   -0.002759832
  20   C   :   -0.013217723   -0.011917980   -0.011274658
  21   F   :    0.001543397   -0.005509664   -0.009362894
  22   C   :    0.013276047    0.014372026    0.014695127
  23   C   :    0.015128690   -0.005075153   -0.016471635
  24   C   :   -0.007299806    0.003460108    0.010136871
  25   C   :    0.008020471    0.005626621    0.003587061
  26   N   :   -0.001550620   -0.006087525   -0.008245300
  27   C   :    0.019461520    0.015460515   -0.020169062
  28   O   :    0.005815709   -0.015323476    0.020120026
  29   C   :   -0.003535097   -0.022764897    0.005868905
  30   H   :   -0.002611102   -0.005872016    0.001062869
  31   H   :    0.001028033    0.003096281   -0.002490167
  32   H   :   -0.001791810    0.002345781   -0.000681188
  33   H   :   -0.001122866    0.000093391    0.000737341
  34   H   :   -0.001041389   -0.000880192   -0.001345570
  35   H   :   -0.000532380    0.000487993    0.000570945
  36   H   :    0.000217003    0.000302366   -0.001687413
  37   H   :   -0.006321021   -0.001416139   -0.002207846
  38   H   :   -0.002837273   -0.001742478   -0.002234641
  39   H   :   -0.000391658    0.001144250    0.000422701
  40   H   :   -0.000527483   -0.006913119   -0.000752233
  41   H   :   -0.001577541    0.002378894    0.002556068
  42   H   :   -0.003318590   -0.008011897   -0.002508398
  43   H   :    0.000242948    0.000233018    0.001428751
  44   H   :   -0.003889800    0.000391046    0.008075524
  45   H   :   -0.000176364   -0.001484367   -0.000945364
  46   H   :    0.000241552    0.000732710    0.001083891
  47   H   :    0.000808796    0.000144031   -0.000256009
  48   H   :    0.000232546   -0.000205778   -0.000397780
  49   H   :   -0.003766156    0.000305022    0.002519770
  50   H   :    0.000029633   -0.001871241    0.005749667
  51   H   :    0.000559830   -0.004617934    0.004083296
  52   H   :    0.000762864   -0.000948283    0.000449043
  53   H   :   -0.004510356    0.004735727    0.006879940

Difference to translation invariance:
           :   -0.0000000000   -0.0000000000    0.0000000000

Difference to rotation invariance:
           :    0.0000118061    0.0000139972    0.0002082652

Norm of the Cartesian gradient     ...    0.1700783337
RMS gradient                       ...    0.0134880892
MAX gradient                       ...    0.0542779604


-------------
DIPOLE MOMENT
-------------

Method             : SCF
Type of density    : Electron Density
Multiplicity       :   1
Irrep              :   0
Energy             : -1342.5453527555171149 Eh
Relativity type    :
Basis              : AO
                                X                 Y                 Z
Electronic contribution:     46.116304919     -19.997129714       6.154590488
Nuclear contribution   :    -44.753075566      20.568269518      -6.374995983
                        -----------------------------------------
Total Dipole Moment    :      1.363229353       0.571139804      -0.220405496
                        -----------------------------------------
Magnitude (a.u.)       :      1.494380650
Magnitude (Debye)      :      3.798413747



--------------------
Rotational spectrum
--------------------

Rotational constants in cm-1:             0.013421             0.001535             0.001508
Rotational constants in MHz :           402.338451            46.027455            45.194206

Dipole components along the rotational axes:
x,y,z [a.u.] :    -1.082401     1.021563    -0.134127
x,y,z [Debye]:    -2.751245     2.596607    -0.340924



Dipole moment calculation done in   0.2 sec

-----------------
QUADRUPOLE MOMENT
-----------------

Method             : SCF
Type of density    : Electron Density
Multiplicity       :   1
Irrep              :   0
Energy             : -1342.5453527555171149 Eh
Relativity type    :
Basis              : AO

                XX              YY              ZZ              XY              XZ              YZ
  NUC    17928.322626885  3203.573768514  1383.848224090 -5359.978076330  2470.184501187  -892.886889004
  EL     -18055.209753427 -3320.375448041 -1517.760777017  5356.451322630 -2463.241485301   894.273438507
  TOT     -126.887126542  -116.801679527  -133.912552927    -3.526753699     6.943015886     1.386549503 (a.u.)
          -170.667524739  -157.102253582  -180.116963496    -4.743604340     9.338593817     1.864956501 (Buckingham)

diagonalized tensor:
          -138.607763761  -123.343715791  -115.649879444 (a.u.)
          -186.432182644  -165.901516093  -155.553043079 (Buckingham)
           -51.409806117    10.182193536    41.227612581 (traceless form in Buckingham)

            -0.535425864     0.777891830     0.328942919
            -0.139560670     0.302631258    -0.942834631
             0.832971766     0.550725542     0.053473498

Isotropic quadrupole :  -125.867119665

Quadrupole moment calculation done in   0.3 sec (  0.0 sec for integrals)

                             ****ORCA TERMINATED NORMALLY****
TOTAL RUN TIME: 0 days 0 hours 24 minutes 5 seconds 906 msec
